/*--------------------------------*- C++ -*----------------------------------*\
| =========                 |                                                 |
| \\      /  F ield         | OpenFOAM: The Open Source CFD Toolbox           |
|  \\    /   O peration     | Version:  3.0.1                                 |
|   \\  /    A nd           | Web:      www.OpenFOAM.org                      |
|    \\/     M anipulation  |                                                 |
\*---------------------------------------------------------------------------*/
FoamFile
{
    version     2.0;
    format      ascii;
    class       volScalarField;
    location    "500";
    object      p;
}
// * * * * * * * * * * * * * * * * * * * * * * * * * * * * * * * * * * * * * //

dimensions      [0 2 -2 0 0 0 0];

internalField   nonuniform List<scalar> 
58000
(
-0.196634
-0.48527
-0.697724
-0.815394
-0.881669
-0.927847
-0.956955
-0.97337
-0.980331
-0.978018
-0.969952
-0.957852
-0.941682
-0.923767
-0.906259
-0.889871
-0.874327
-0.860136
-0.847207
-0.83504
-0.823122
-0.812048
-0.801747
-0.791772
-0.781662
-0.771583
-0.762086
-0.75293
-0.743769
-0.734419
-0.725099
-0.716231
-0.707624
-0.699012
-0.690208
-0.680378
-0.667627
-0.654447
-0.643901
-0.635421
0.165091
0.0267947
-0.12486
-0.270925
-0.394811
-0.501584
-0.591751
-0.671783
-0.735362
-0.782265
-0.816483
-0.838004
-0.848675
-0.852306
-0.849905
-0.843061
-0.834114
-0.824109
-0.813488
-0.802718
-0.792167
-0.781928
-0.771775
-0.761754
-0.751868
-0.742443
-0.733117
-0.723822
-0.714535
-0.705297
-0.696443
-0.687665
-0.678877
-0.669999
-0.661083
-0.652071
-0.642196
-0.632268
-0.624198
-0.618921
0.106123
0.00399396
-0.100287
-0.206423
-0.304729
-0.395244
-0.476219
-0.546982
-0.609323
-0.659416
-0.699501
-0.730433
-0.751473
-0.764921
-0.772692
-0.77529
-0.774148
-0.770621
-0.765479
-0.759245
-0.752383
-0.745118
-0.737508
-0.729711
-0.721868
-0.714067
-0.70611
-0.698061
-0.689956
-0.68192
-0.673966
-0.66591
-0.657786
-0.649578
-0.641352
-0.633108
-0.62461
-0.616064
-0.608095
-0.600591
0.132084
0.0644161
-0.00996089
-0.0925562
-0.177046
-0.26045
-0.338473
-0.410198
-0.475773
-0.531682
-0.579698
-0.620084
-0.651084
-0.674259
-0.691712
-0.703287
-0.70971
-0.712606
-0.712975
-0.711274
-0.707986
-0.703602
-0.698432
-0.692661
-0.686484
-0.680034
-0.673277
-0.666279
-0.659063
-0.651776
-0.644485
-0.637043
-0.629471
-0.621759
-0.613995
-0.606285
-0.598548
-0.590791
-0.583228
-0.575876
0.115967
0.0663148
0.0133229
-0.0471488
-0.112113
-0.180196
-0.248095
-0.313165
-0.375671
-0.431401
-0.481272
-0.525449
-0.561584
-0.590454
-0.614137
-0.632084
-0.644453
-0.652862
-0.658309
-0.661076
-0.661546
-0.66037
-0.658033
-0.654742
-0.650684
-0.645988
-0.640794
-0.6352
-0.629242
-0.623083
-0.616741
-0.610166
-0.603396
-0.596438
-0.589397
-0.582352
-0.575264
-0.568105
-0.560919
-0.553675
0.108216
0.0692785
0.0283234
-0.0184387
-0.0694586
-0.124468
-0.181736
-0.238545
-0.29535
-0.348034
-0.39692
-0.441979
-0.480611
-0.512993
-0.540949
-0.563607
-0.58068
-0.593672
-0.603504
-0.610283
-0.614256
-0.616159
-0.616583
-0.615734
-0.613766
-0.61083
-0.607211
-0.603031
-0.598331
-0.593261
-0.587857
-0.582143
-0.576164
-0.569931
-0.563546
-0.557091
-0.550559
-0.543908
-0.537127
-0.530221
0.0982768
0.0667353
0.0341203
-0.00301
-0.0437045
-0.0881809
-0.135838
-0.184206
-0.2342
-0.28211
-0.32788
-0.371482
-0.410324
-0.444066
-0.474282
-0.499918
-0.520303
-0.536766
-0.550114
-0.560289
-0.567375
-0.572108
-0.57514
-0.576657
-0.576774
-0.575634
-0.573638
-0.570926
-0.567546
-0.563641
-0.559249
-0.554461
-0.549333
-0.54388
-0.538203
-0.532377
-0.526417
-0.52028
-0.513937
-0.507405
0.0895837
0.0631074
0.036133
0.00565391
-0.0276405
-0.0641473
-0.103931
-0.144856
-0.188196
-0.230807
-0.272462
-0.313228
-0.350718
-0.384225
-0.415099
-0.44223
-0.464658
-0.483503
-0.499444
-0.512282
-0.521938
-0.5291
-0.53444
-0.538104
-0.540161
-0.540728
-0.540295
-0.539011
-0.536927
-0.534173
-0.530791
-0.52693
-0.522651
-0.517976
-0.513001
-0.507798
-0.502402
-0.496779
-0.490891
-0.484784
0.0816794
0.0589557
0.0360726
0.0103989
-0.0174895
-0.0480155
-0.0815848
-0.116345
-0.15377
-0.191273
-0.22858
-0.265879
-0.301088
-0.333293
-0.363657
-0.391116
-0.41451
-0.434755
-0.452404
-0.467161
-0.478803
-0.487933
-0.495206
-0.50072
-0.504507
-0.506631
-0.50765
-0.507709
-0.506857
-0.505215
-0.502817
-0.499864
-0.496422
-0.492516
-0.488237
-0.483654
-0.478821
-0.473712
-0.46829
-0.462622
0.0746446
0.0547771
0.0349581
0.0128702
-0.0109762
-0.0369744
-0.0656797
-0.095468
-0.127885
-0.160812
-0.19398
-0.227691
-0.260197
-0.290492
-0.319589
-0.34653
-0.370055
-0.390893
-0.409489
-0.425486
-0.438543
-0.449163
-0.457963
-0.464991
-0.470246
-0.473732
-0.476042
-0.477315
-0.477592
-0.476984
-0.475515
-0.473425
-0.470783
-0.467614
-0.464007
-0.460025
-0.455741
-0.451138
-0.446177
-0.440955
0.0683851
0.0507654
0.0333192
0.0139908
-0.00675517
-0.0292666
-0.0541469
-0.0799534
-0.108216
-0.137191
-0.166639
-0.196936
-0.226645
-0.254754
-0.282159
-0.308032
-0.331093
-0.351916
-0.370849
-0.387506
-0.401467
-0.41313
-0.423064
-0.431265
-0.437708
-0.442335
-0.445753
-0.448087
-0.449365
-0.449692
-0.449074
-0.447784
-0.445887
-0.443409
-0.440437
-0.437029
-0.433271
-0.429154
-0.424643
-0.419858
0.0628158
0.0470089
0.0314492
0.0143016
-0.00400628
-0.0237771
-0.0456135
-0.0682219
-0.0930644
-0.118688
-0.144886
-0.172077
-0.199095
-0.224968
-0.250497
-0.274987
-0.297192
-0.317562
-0.336372
-0.35323
-0.367665
-0.37998
-0.39069
-0.399746
-0.407105
-0.412647
-0.416977
-0.420205
-0.422346
-0.423494
-0.423638
-0.423069
-0.42185
-0.420007
-0.417623
-0.414751
-0.411488
-0.407832
-0.403749
-0.399387
0.0578518
0.0435385
0.0295135
0.0141292
-0.00221906
-0.0197936
-0.0391724
-0.0591894
-0.0812126
-0.104012
-0.127411
-0.151849
-0.176381
-0.2001
-0.223722
-0.24668
-0.267795
-0.287425
-0.305787
-0.322501
-0.337067
-0.349707
-0.360885
-0.370513
-0.378537
-0.384782
-0.389837
-0.393791
-0.396651
-0.3985
-0.399307
-0.399373
-0.398759
-0.397487
-0.395638
-0.393259
-0.390454
-0.387228
-0.383547
-0.379584
0.0534165
0.0403561
0.0276042
0.0136743
-0.00106792
-0.0168506
-0.0342152
-0.052106
-0.0717893
-0.0922094
-0.113213
-0.135241
-0.157527
-0.179237
-0.201016
-0.22241
-0.242324
-0.261043
-0.278739
-0.295059
-0.309498
-0.322206
-0.333597
-0.343557
-0.352024
-0.358778
-0.364382
-0.368907
-0.372347
-0.374777
-0.376146
-0.37676
-0.376673
-0.375907
-0.374536
-0.372602
-0.370214
-0.367381
-0.364073
-0.360483
0.0494431
0.0374504
0.0257724
0.0130628
-0.000340564
-0.0146362
-0.0303258
-0.0464503
-0.0641735
-0.0825801
-0.101536
-0.121468
-0.141749
-0.161624
-0.181676
-0.201543
-0.220221
-0.237942
-0.254844
-0.270602
-0.284723
-0.297303
-0.308707
-0.318801
-0.32752
-0.334614
-0.340612
-0.345566
-0.349458
-0.352355
-0.354189
-0.355263
-0.355627
-0.355299
-0.354348
-0.35281
-0.350797
-0.34832
-0.345352
-0.342104
0.045874
0.0348032
0.0240443
0.0123738
0.000103601
-0.0129398
-0.0272173
-0.0418565
-0.0579225
-0.0746136
-0.0918124
-0.109924
-0.12843
-0.146649
-0.165111
-0.183526
-0.200984
-0.217676
-0.233716
-0.248808
-0.262481
-0.274788
-0.286052
-0.296125
-0.304943
-0.312233
-0.318488
-0.323744
-0.327971
-0.331231
-0.33344
-0.334893
-0.335635
-0.335678
-0.33509
-0.333898
-0.332216
-0.330057
-0.327396
-0.32446
0.0426589
0.0323927
0.0224305
0.0116568
0.000358633
-0.0116158
-0.0246881
-0.0380636
-0.0527148
-0.0679337
-0.0836164
-0.100143
-0.11708
-0.133815
-0.150828
-0.167889
-0.184173
-0.199845
-0.214998
-0.229366
-0.242506
-0.25444
-0.26545
-0.275383
-0.28418
-0.291547
-0.297944
-0.303391
-0.307853
-0.311381
-0.313882
-0.315638
-0.316688
-0.317042
-0.316761
-0.315869
-0.314476
-0.312597
-0.310209
-0.307554
0.0397546
0.0301977
0.0209338
0.0109428
0.000488563
-0.0105623
-0.0225944
-0.0348828
-0.0483145
-0.06226
-0.0766264
-0.0917671
-0.107318
-0.122727
-0.138427
-0.154236
-0.169413
-0.184096
-0.198367
-0.21199
-0.224548
-0.23604
-0.246717
-0.256422
-0.2651
-0.27245
-0.278892
-0.28444
-0.289048
-0.292763
-0.295481
-0.297472
-0.298768
-0.299375
-0.299351
-0.298712
-0.297568
-0.295934
-0.293788
-0.291383
0.0371248
0.0281985
0.0195522
0.0102512
0.000537163
-0.0097072
-0.0208319
-0.0321758
-0.0445467
-0.0573823
-0.0705988
-0.0845225
-0.0988446
-0.113067
-0.127581
-0.142243
-0.156385
-0.170128
-0.183542
-0.196419
-0.20837
-0.21938
-0.22967
-0.239083
-0.247569
-0.254825
-0.261238
-0.26681
-0.271491
-0.275322
-0.278193
-0.280358
-0.281843
-0.282652
-0.282837
-0.282411
-0.281479
-0.280055
-0.278121
-0.275938
0.0347379
0.0263766
0.0182811
0.00959341
0.000535011
-0.00899803
-0.0193241
-0.0298397
-0.0412801
-0.0531408
-0.065346
-0.0781956
-0.0914248
-0.104584
-0.118028
-0.131642
-0.144825
-0.157682
-0.170276
-0.182421
-0.193761
-0.204266
-0.214134
-0.223212
-0.231453
-0.238559
-0.244882
-0.250417
-0.25511
-0.258998
-0.261965
-0.264252
-0.265876
-0.266841
-0.267193
-0.266942
-0.266187
-0.264943
-0.263193
-0.261204
0.0325665
0.0247152
0.0171148
0.00897651
0.000503329
-0.00839695
-0.0180142
-0.0277974
-0.0384153
-0.0494136
-0.0607237
-0.0726201
-0.0848739
-0.0970794
-0.109556
-0.122213
-0.13451
-0.146541
-0.158357
-0.169796
-0.180531
-0.190525
-0.199953
-0.208667
-0.216625
-0.223537
-0.229724
-0.235173
-0.23983
-0.243724
-0.246741
-0.249103
-0.250824
-0.251904
-0.252387
-0.252277
-0.251668
-0.250576
-0.248984
-0.247165
0.030587
0.0231988
0.0160465
0.00840395
0.000456724
-0.00787686
-0.0168603
-0.0259907
-0.0358764
-0.0461067
-0.0566196
-0.0676655
-0.0790452
-0.0903919
-0.101994
-0.113778
-0.125259
-0.136519
-0.147604
-0.158368
-0.168513
-0.177999
-0.18698
-0.195314
-0.202964
-0.209652
-0.215667
-0.220993
-0.225573
-0.229435
-0.232462
-0.234861
-0.236642
-0.237803
-0.238383
-0.238385
-0.237895
-0.236929
-0.235471
-0.233798
0.0287786
0.0218132
0.0150691
0.00787639
0.000404945
-0.00741752
-0.0158304
-0.0243751
-0.0336046
-0.0431469
-0.0529454
-0.0632282
-0.0738209
-0.0843917
-0.0952012
-0.106189
-0.116918
-0.127462
-0.13786
-0.147984
-0.157562
-0.166549
-0.175085
-0.183033
-0.19036
-0.196802
-0.202619
-0.207794
-0.212267
-0.216064
-0.219069
-0.221473
-0.223282
-0.224494
-0.225144
-0.22523
-0.224835
-0.223973
-0.222629
-0.221082
0.0271235
0.0205459
0.0141753
0.00739341
0.000355148
-0.00700367
-0.0149001
-0.0229156
-0.0315531
-0.0404754
-0.0496302
-0.0592252
-0.0691064
-0.0789736
-0.0890625
-0.0993233
-0.10936
-0.11924
-0.128996
-0.138516
-0.147551
-0.156055
-0.164153
-0.171715
-0.178713
-0.184895
-0.190497
-0.195498
-0.199841
-0.203548
-0.206505
-0.208888
-0.2107
-0.211937
-0.212632
-0.21278
-0.212458
-0.21168
-0.210433
-0.208992
0.025606
0.0193859
0.0133587
0.00695372
0.000312007
-0.00662366
-0.0140501
-0.0215849
-0.0296855
-0.0380459
-0.046618
-0.0555902
-0.064826
-0.0740533
-0.0834852
-0.0930799
-0.10248
-0.111743
-0.120901
-0.129852
-0.138371
-0.14641
-0.154081
-0.161263
-0.167931
-0.173845
-0.17922
-0.184033
-0.188229
-0.191826
-0.194714
-0.197054
-0.198848
-0.20009
-0.200808
-0.200999
-0.200732
-0.200021
-0.198854
-0.197504
0.0242126
0.018323
0.0126131
0.00655553
0.000278277
-0.00626935
-0.0132658
-0.0203619
-0.0279733
-0.0358222
-0.0438642
-0.0522702
-0.0609181
-0.0695613
-0.0783924
-0.0873759
-0.0961882
-0.104881
-0.113481
-0.121898
-0.129927
-0.137522
-0.144781
-0.151591
-0.157931
-0.163574
-0.168716
-0.173331
-0.177367
-0.18084
-0.183643
-0.185923
-0.187681
-0.18891
-0.189635
-0.189852
-0.189625
-0.188966
-0.187865
-0.186593
0.0229311
0.0173483
0.0119327
0.00619641
0.000255519
-0.00593481
-0.0125361
-0.0192299
-0.0263937
-0.0337749
-0.0413327
-0.0492216
-0.0573322
-0.0654404
-0.0737202
-0.0821415
-0.090411
-0.0985744
-0.106655
-0.114571
-0.122137
-0.129308
-0.136172
-0.142622
-0.148639
-0.154013
-0.158918
-0.16333
-0.167198
-0.170536
-0.173241
-0.175449
-0.177158
-0.178359
-0.179078
-0.179307
-0.179106
-0.178487
-0.17744
-0.176232
0.0217507
0.0164538
0.0113121
0.00587387
0.000244621
-0.00561547
-0.0118523
-0.0181755
-0.0249281
-0.0318799
-0.0389935
-0.0464084
-0.0540262
-0.0616429
-0.0694156
-0.0773185
-0.0850858
-0.0927578
-0.100354
-0.107802
-0.114931
-0.121699
-0.128184
-0.134287
-0.139991
-0.145098
-0.149767
-0.153974
-0.157669
-0.160864
-0.163463
-0.165588
-0.167236
-0.1684
-0.1691
-0.16933
-0.169144
-0.168555
-0.167552
-0.166398
0.0206619
0.0156321
0.010746
0.00558535
0.000245782
-0.00530775
-0.0112071
-0.0171878
-0.0235612
-0.0301173
-0.0368217
-0.0438005
-0.0509647
-0.0581289
-0.0654343
-0.0728584
-0.0801598
-0.0873748
-0.0945196
-0.101529
-0.108246
-0.114633
-0.120756
-0.126526
-0.131926
-0.136772
-0.141209
-0.14521
-0.14873
-0.151779
-0.154264
-0.156299
-0.157879
-0.158995
-0.159668
-0.159889
-0.15971
-0.159141
-0.158174
-0.157064
0.0196563
0.0148765
0.0102297
0.00532823
0.000258777
-0.00500931
-0.0105952
-0.0162581
-0.0222804
-0.0284706
-0.034797
-0.0413735
-0.0481189
-0.0548648
-0.0617386
-0.0687195
-0.0755882
-0.0823774
-0.089101
-0.095699
-0.10203
-0.108055
-0.113835
-0.119286
-0.124393
-0.128985
-0.133193
-0.136992
-0.140336
-0.143236
-0.145605
-0.147544
-0.149049
-0.150112
-0.150749
-0.150955
-0.150776
-0.15022
-0.149281
-0.148208
0.0187262
0.014181
0.00975869
0.00509993
0.000283252
-0.0047182
-0.0100123
-0.0153795
-0.0210758
-0.0269264
-0.0329026
-0.0391066
-0.0454644
-0.0518227
-0.058296
-0.0648658
-0.0713326
-0.0777252
-0.0840554
-0.0902685
-0.096235
-0.101918
-0.107372
-0.112519
-0.117345
-0.121692
-0.125677
-0.129276
-0.132447
-0.135198
-0.137447
-0.139288
-0.140714
-0.141717
-0.142315
-0.142499
-0.142313
-0.141764
-0.140847
-0.139804
0.0178648
0.0135403
0.00932908
0.00489816
0.000318672
-0.00443317
-0.00945472
-0.014546
-0.0199387
-0.0254737
-0.0311242
-0.0369823
-0.0429805
-0.0489788
-0.0550802
-0.0612676
-0.06736
-0.0733829
-0.0793454
-0.0851976
-0.0908213
-0.0961817
-0.101327
-0.106184
-0.110741
-0.114851
-0.11862
-0.122025
-0.125025
-0.127628
-0.129757
-0.131497
-0.132841
-0.133783
-0.134336
-0.134494
-0.134296
-0.13375
-0.13285
-0.131831
0.0170662
0.0129496
0.00893735
0.00472083
0.000364288
-0.00415337
-0.00891991
-0.0137529
-0.0188623
-0.0241029
-0.0294499
-0.034986
-0.0406494
-0.0463125
-0.0520678
-0.0578994
-0.0636426
-0.0693199
-0.0749384
-0.0804524
-0.0857537
-0.0908091
-0.0956618
-0.100244
-0.104543
-0.108426
-0.111986
-0.115202
-0.118035
-0.120492
-0.122502
-0.12414
-0.125402
-0.12628
-0.126786
-0.126914
-0.126701
-0.126153
-0.125266
-0.124267
0.0163247
0.0124045
0.00858027
0.00456585
0.000419143
-0.00387833
-0.00840551
-0.0129963
-0.0178407
-0.022806
-0.0278694
-0.0331051
-0.0384562
-0.0438065
-0.049239
-0.0547388
-0.0601559
-0.06551
-0.0708065
-0.0760031
-0.0810009
-0.0857687
-0.0903443
-0.0946647
-0.0987194
-0.102384
-0.105743
-0.108776
-0.111447
-0.113762
-0.115653
-0.117191
-0.11837
-0.119182
-0.119639
-0.119735
-0.119504
-0.118951
-0.118073
-0.11709
0.0156357
0.0119011
0.00825476
0.00443116
0.000482348
-0.00360759
-0.00790957
-0.0122726
-0.0168685
-0.021576
-0.0263739
-0.0313288
-0.0363881
-0.0414459
-0.0465766
-0.0517664
-0.0568787
-0.0619302
-0.0669248
-0.0718235
-0.0765359
-0.0810321
-0.0853456
-0.0894182
-0.0932396
-0.0966952
-0.0998619
-0.102719
-0.105232
-0.107408
-0.109184
-0.110623
-0.111719
-0.112465
-0.112872
-0.112934
-0.112682
-0.112123
-0.111252
-0.110281
0.0149948
0.0114359
0.00795804
0.00431481
0.000553092
-0.00334079
-0.00743067
-0.0115793
-0.0159417
-0.0204072
-0.024956
-0.0296477
-0.0344338
-0.0392175
-0.044066
-0.0489661
-0.0537928
-0.0585606
-0.0632722
-0.0678911
-0.0723343
-0.0765743
-0.0806401
-0.0844776
-0.0880774
-0.0913336
-0.0943155
-0.0970031
-0.0993651
-0.101406
-0.103069
-0.10441
-0.105425
-0.106105
-0.106462
-0.10649
-0.106216
-0.105648
-0.104781
-0.10382
0.0143979
0.0110056
0.00768758
0.00421518
0.000630664
-0.00307787
-0.0069677
-0.010914
-0.0150567
-0.0192945
-0.0236091
-0.0280537
-0.0325834
-0.0371103
-0.0416947
-0.0463232
-0.0508822
-0.0553838
-0.0598293
-0.0641851
-0.0683752
-0.0723731
-0.0762047
-0.0798197
-0.0832089
-0.086275
-0.0890803
-0.0916055
-0.093822
-0.0957332
-0.0972862
-0.0985327
-0.0994673
-0.100083
-0.10039
-0.100382
-0.100086
-0.0995074
-0.0986435
-0.09769
0.0138415
0.0106074
0.00744118
0.0041308
0.000714221
-0.00281883
-0.00651959
-0.0102746
-0.0142101
-0.0182334
-0.0223276
-0.0265398
-0.0308289
-0.0351148
-0.0394511
-0.0438252
-0.0481328
-0.0523841
-0.0565796
-0.060688
-0.0646393
-0.0684088
-0.072019
-0.0754232
-0.0786126
-0.0814977
-0.0841343
-0.0865046
-0.0885811
-0.0903673
-0.0918143
-0.0929687
-0.0938252
-0.0943777
-0.094635
-0.0945924
-0.0942732
-0.0936835
-0.092821
-0.0918728
0.0133224
0.0102388
0.00721683
0.00406019
0.000802951
-0.00256363
-0.00608546
-0.00965941
-0.0133992
-0.0172201
-0.0211064
-0.0251
-0.0291631
-0.0332224
-0.0373258
-0.0414607
-0.0455319
-0.049548
-0.0535083
-0.0573836
-0.06111
-0.0646639
-0.0680647
-0.0712694
-0.0742692
-0.0769822
-0.0794582
-0.0816801
-0.083623
-0.0852894
-0.086634
-0.0876993
-0.0884805
-0.0889712
-0.0891801
-0.0891026
-0.0887605
-0.0881593
-0.0872972
-0.0863526
0.0128377
0.00989718
0.00701267
0.0040021
0.000896213
-0.00231234
-0.00566456
-0.00906683
-0.0126216
-0.0162514
-0.0199415
-0.0237293
-0.0275797
-0.0314258
-0.0353099
-0.0392199
-0.0430687
-0.0468632
-0.0506022
-0.0542581
-0.0577721
-0.0611223
-0.0643253
-0.0673411
-0.0701613
-0.0727106
-0.0750337
-0.0771146
-0.0789296
-0.0804811
-0.0817276
-0.0827072
-0.0834152
-0.0838465
-0.0840081
-0.0838967
-0.0835317
-0.0829189
-0.0820564
-0.0811144
0.0123848
0.0095805
0.00682698
0.00395539
0.000993404
-0.00206503
-0.00525642
-0.00849588
-0.0118755
-0.0153247
-0.0188295
-0.0224233
-0.0260733
-0.0297182
-0.0333958
-0.037094
-0.0407332
-0.0443191
-0.0478494
-0.0512984
-0.0546123
-0.0577699
-0.0607858
-0.0636229
-0.066273
-0.0686669
-0.0708447
-0.072791
-0.0744843
-0.0759263
-0.0770786
-0.0779759
-0.078614
-0.0789875
-0.0791037
-0.0789592
-0.0785719
-0.0779475
-0.0770843
-0.076144
0.0119611
0.00928668
0.00665813
0.00391891
0.0010939
-0.00182181
-0.00486066
-0.00794562
-0.0111594
-0.0144375
-0.0177673
-0.0211778
-0.0246386
-0.0280937
-0.0315764
-0.0350751
-0.0385168
-0.0419058
-0.0452394
-0.0484935
-0.0516181
-0.0545938
-0.0574328
-0.0601009
-0.0625899
-0.0648364
-0.066876
-0.0686947
-0.0702719
-0.0716093
-0.0726719
-0.0734906
-0.0740613
-0.0743797
-0.0744521
-0.0742757
-0.0738671
-0.0732314
-0.0723673
-0.0714281
0.0115643
0.00901382
0.00650456
0.0038915
0.00119697
-0.00158289
-0.00447689
-0.00741513
-0.0104717
-0.0135879
-0.0167518
-0.019989
-0.0232711
-0.0265468
-0.0298457
-0.0331561
-0.0364113
-0.0396146
-0.0427625
-0.0458325
-0.0487787
-0.0515824
-0.0542542
-0.0567624
-0.0590989
-0.0612056
-0.0631143
-0.0648114
-0.0662786
-0.0675166
-0.0684933
-0.069237
-0.0697438
-0.0700092
-0.0700398
-0.069833
-0.069404
-0.0687575
-0.0678927
-0.0669542
0.0111926
0.00876022
0.00636487
0.00387212
0.00130198
-0.00134851
-0.00410483
-0.00690353
-0.00981111
-0.0127738
-0.0157806
-0.0188537
-0.0219668
-0.0250728
-0.0281979
-0.0313306
-0.0344097
-0.0374375
-0.0404103
-0.0433066
-0.046084
-0.0487252
-0.051239
-0.0535959
-0.0557881
-0.0577623
-0.0595467
-0.0611289
-0.0624912
-0.0636347
-0.0645301
-0.0652024
-0.0656481
-0.0658635
-0.0658544
-0.0656187
-0.0651702
-0.0645139
-0.0636485
-0.0627107
0.0108438
0.00852428
0.0062378
0.00385983
0.00140834
-0.00111885
-0.00374415
-0.00641023
-0.00917626
-0.0119934
-0.0148511
-0.0177688
-0.0207219
-0.0236673
-0.0266281
-0.0295928
-0.0325056
-0.0353677
-0.0381748
-0.040907
-0.0435252
-0.0460127
-0.048377
-0.0505909
-0.0526465
-0.0544951
-0.0561619
-0.0576349
-0.0588982
-0.0599522
-0.06077
-0.0613746
-0.0617627
-0.0619305
-0.0618838
-0.0616209
-0.0611544
-0.060489
-0.0596236
-0.0586869
0.0105165
0.0083046
0.00612216
0.00385376
0.00151551
-0.000894032
-0.00339474
-0.00593439
-0.00856608
-0.0112449
-0.0139611
-0.0167315
-0.019533
-0.0223265
-0.0251316
-0.0279376
-0.030693
-0.0333983
-0.036049
-0.0386262
-0.0410937
-0.043436
-0.0456592
-0.0477377
-0.0496641
-0.0513939
-0.0529491
-0.054319
-0.0554883
-0.0564575
-0.0572022
-0.0577427
-0.058076
-0.0581992
-0.0581172
-0.0578287
-0.0573457
-0.0566722
-0.0558076
-0.0548726
0.0102088
0.00809984
0.0060169
0.00385315
0.00162303
-0.000674314
-0.00305623
-0.00547556
-0.00797944
-0.0105269
-0.0131086
-0.0157393
-0.0183973
-0.0210465
-0.0237044
-0.0263602
-0.0289667
-0.0315238
-0.0340265
-0.0364571
-0.0387823
-0.0409872
-0.0430768
-0.0450274
-0.0468318
-0.048449
-0.0498989
-0.0511709
-0.0522516
-0.0531408
-0.053816
-0.054296
-0.0545781
-0.054659
-0.054544
-0.054232
-0.0537338
-0.0530537
-0.0521906
-0.051258
0.00991952
0.00790882
0.00592106
0.00385728
0.00173044
-0.000459742
-0.00272854
-0.00503309
-0.00741538
-0.00983793
-0.0122919
-0.0147899
-0.0173117
-0.0198243
-0.0223425
-0.0248561
-0.0273217
-0.0297384
-0.0321014
-0.0343935
-0.0365839
-0.0386589
-0.0406223
-0.042452
-0.044141
-0.0456518
-0.047002
-0.0481819
-0.0491786
-0.0499921
-0.0506021
-0.0510252
-0.0512586
-0.0513004
-0.0511546
-0.050821
-0.0503093
-0.0496237
-0.0487634
-0.0478343
0.0096472
0.00773044
0.00583374
0.00386551
0.0018374
-0.000250523
-0.00241139
-0.0046065
-0.00687303
-0.00917674
-0.0115092
-0.0138813
-0.0162739
-0.0186567
-0.0210427
-0.0234216
-0.0257537
-0.0280376
-0.0302681
-0.0324292
-0.0344924
-0.0364445
-0.0382885
-0.040004
-0.0415839
-0.0429941
-0.0442502
-0.0453428
-0.0462606
-0.0470029
-0.0475512
-0.0479206
-0.048109
-0.0481139
-0.0479399
-0.0475866
-0.047063
-0.0463736
-0.045517
-0.0445928
0.00939067
0.00756371
0.00575416
0.00387731
0.00194349
-4.66515e-05
-0.00210466
-0.00419531
-0.0063516
-0.00854219
-0.0107591
-0.0130115
-0.0152814
-0.0175411
-0.0198016
-0.0220529
-0.0242585
-0.0264166
-0.0285219
-0.0305591
-0.0325017
-0.0343376
-0.0360688
-0.0376763
-0.0391532
-0.0404685
-0.0416356
-0.0426462
-0.0434892
-0.0441644
-0.044655
-0.0449743
-0.0451201
-0.0450912
-0.0448912
-0.0445201
-0.0439867
-0.0432945
-0.0424432
-0.0415251
0.0091488
0.0074077
0.00568159
0.00389208
0.00204848
0.0001517
-0.00180811
-0.00379906
-0.00585033
-0.00793321
-0.0100401
-0.0121787
-0.0143321
-0.0164748
-0.0186163
-0.0207467
-0.0228325
-0.0248715
-0.0268581
-0.0287779
-0.0306067
-0.0323327
-0.0339571
-0.0354626
-0.0368423
-0.0380678
-0.0391511
-0.0400841
-0.0408571
-0.0414693
-0.0419055
-0.0421777
-0.0422845
-0.0422239
-0.0420003
-0.0416136
-0.0410717
-0.0403789
-0.0395337
-0.0386235
0.00892056
0.00726155
0.00561532
0.00390936
0.002152
0.000344495
-0.0015216
-0.00341736
-0.00536852
-0.00734881
-0.009351
-0.0113813
-0.013424
-0.0154557
-0.0174841
-0.0194999
-0.0214721
-0.0233981
-0.0252724
-0.0270813
-0.0288022
-0.0304243
-0.0319479
-0.0333569
-0.0346448
-0.0357857
-0.0367899
-0.0376502
-0.0383569
-0.0389099
-0.0392953
-0.0395238
-0.0395938
-0.0395046
-0.0392595
-0.038859
-0.0383107
-0.0376181
-0.0367812
-0.0358801
0.008705
0.00712449
0.00555472
0.00392867
0.0022538
0.000531653
-0.00124496
-0.00304981
-0.00490553
-0.00678806
-0.0086905
-0.0106179
-0.0125554
-0.0144814
-0.0164026
-0.0183096
-0.020174
-0.0219931
-0.0237609
-0.0254647
-0.0270837
-0.0286074
-0.0300358
-0.0313537
-0.0325551
-0.0336161
-0.0345458
-0.0353373
-0.0359822
-0.0364796
-0.0368173
-0.0370049
-0.0370415
-0.0369256
-0.0366614
-0.0362491
-0.0356958
-0.0350057
-0.0341775
-0.0332874
0.00850124
0.00699579
0.00549926
0.00394962
0.00235366
0.000713124
-0.00097804
-0.00269606
-0.00446077
-0.00625012
-0.00805752
-0.00988691
-0.0117244
-0.0135501
-0.0153694
-0.0171732
-0.0189355
-0.0206529
-0.02232
-0.0239244
-0.0254469
-0.0268776
-0.028216
-0.029448
-0.0305676
-0.0315533
-0.0324127
-0.0331399
-0.0337263
-0.0341717
-0.034465
-0.0346149
-0.0346201
-0.0344804
-0.0341989
-0.0337766
-0.0332203
-0.0325333
-0.0317159
-0.030838
0.00830847
0.00687483
0.00544837
0.00397187
0.00245139
0.000888885
-0.000720682
-0.00235576
-0.00403367
-0.00573418
-0.00745099
-0.00918712
-0.0109295
-0.0126598
-0.0143823
-0.0160882
-0.0177535
-0.0193748
-0.0209462
-0.0224565
-0.0238878
-0.0252305
-0.0264838
-0.0276347
-0.0286773
-0.029592
-0.0303855
-0.0310517
-0.0315836
-0.0319804
-0.0322322
-0.0323468
-0.0323237
-0.0321619
-0.0318653
-0.0314348
-0.0308765
-0.0301948
-0.0293886
-0.0285246
0.00812594
0.00676095
0.00540163
0.00399508
0.00254679
0.00105892
-0.000472714
-0.00202855
-0.00362367
-0.00523946
-0.00686992
-0.00851727
-0.0101692
-0.0118088
-0.0134393
-0.0150523
-0.0166256
-0.0181555
-0.0196366
-0.0210578
-0.0224026
-0.0236622
-0.0248352
-0.0259095
-0.0268795
-0.0277272
-0.0284584
-0.0290678
-0.0295483
-0.0298997
-0.0301129
-0.0301951
-0.0301455
-0.0299642
-0.0296542
-0.029217
-0.0286586
-0.0279824
-0.0271892
-0.0263398
0.00795294
0.00665361
0.00535855
0.00401892
0.00263972
0.00122321
-0.000233983
-0.00171411
-0.00323023
-0.00476525
-0.00631341
-0.00787624
-0.00944209
-0.0109953
-0.0125385
-0.0140633
-0.0155493
-0.0169927
-0.018388
-0.0197249
-0.020988
-0.0221689
-0.023266
-0.024268
-0.0251695
-0.0259542
-0.026627
-0.0271827
-0.0276154
-0.0279244
-0.0281016
-0.0281536
-0.0280803
-0.0278809
-0.0275594
-0.027117
-0.0265593
-0.0258905
-0.0251103
-0.0242768
0.0077888
0.00655225
0.00531871
0.00404313
0.00273
0.00138175
-4.33811e-06
-0.00141212
-0.00285288
-0.00431088
-0.00578059
-0.00726292
-0.00874688
-0.0102181
-0.0116782
-0.0131193
-0.0145224
-0.0158836
-0.0171978
-0.0184549
-0.0196406
-0.0207471
-0.0217725
-0.0227063
-0.0235433
-0.0242686
-0.0248864
-0.025392
-0.0257797
-0.026049
-0.026193
-0.0262174
-0.0261217
-0.0259066
-0.025575
-0.0251286
-0.024573
-0.0239117
-0.0231459
-0.0223284
0.00763293
0.0064564
0.00528174
0.00406741
0.00281752
0.00153453
0.000216362
-0.0011223
-0.00249114
-0.00387569
-0.00527063
-0.00667631
-0.00808236
-0.00947544
-0.0108567
-0.0122182
-0.0135426
-0.0148261
-0.0160632
-0.0172448
-0.0183574
-0.0193935
-0.0203511
-0.0212206
-0.0219968
-0.0226663
-0.0232325
-0.0236908
-0.0240366
-0.0242691
-0.024382
-0.0243806
-0.0242652
-0.0240355
-0.0236953
-0.0232461
-0.0226931
-0.0220407
-0.0212888
-0.020488
0.00748478
0.00636557
0.00524728
0.00409156
0.00290212
0.00168155
0.000428266
-0.000844359
-0.00214458
-0.00345907
-0.00478273
-0.00611541
-0.00744733
-0.00876617
-0.0100723
-0.0113583
-0.0126081
-0.0138177
-0.014982
-0.0160921
-0.0171353
-0.018105
-0.0189987
-0.0198074
-0.0205264
-0.0211433
-0.0216608
-0.0220753
-0.0223816
-0.0225797
-0.0226639
-0.022639
-0.0225049
-0.0222627
-0.0219149
-0.0214639
-0.0209146
-0.0202707
-0.0195336
-0.018749
0.00734379
0.00627941
0.00521503
0.00411533
0.00298374
0.00182282
0.000631517
-0.000578017
-0.00181276
-0.00306044
-0.00431615
-0.00557931
-0.00684071
-0.0080888
-0.00932365
-0.010538
-0.011717
-0.0128566
-0.0139518
-0.014994
-0.0159719
-0.0168786
-0.0177119
-0.0184635
-0.0191286
-0.0196959
-0.020168
-0.0205408
-0.0208106
-0.0209767
-0.0210341
-0.0209874
-0.0208369
-0.0205829
-0.0202288
-0.0197767
-0.0192313
-0.0185968
-0.0178736
-0.0171053
0.0072095
0.00619747
0.00518467
0.00413858
0.00306226
0.00195838
0.000826261
-0.000323008
-0.00149528
-0.00267924
-0.00387017
-0.00506713
-0.00626139
-0.00744228
-0.00860928
-0.00975558
-0.0108674
-0.0119406
-0.0129704
-0.0139486
-0.0148644
-0.0157117
-0.0164881
-0.0171856
-0.0177999
-0.0183207
-0.0187498
-0.0190842
-0.0193195
-0.0194557
-0.0194885
-0.0194217
-0.0192557
-0.0189917
-0.0186321
-0.0181796
-0.0176386
-0.0170129
-0.0163039
-0.015551
0.00708141
0.00611941
0.00515595
0.00416106
0.00313762
0.00208824
0.00101264
-7.90714e-05
-0.00119175
-0.00231495
-0.00344412
-0.00457803
-0.00570841
-0.00682531
-0.00792796
-0.00900964
-0.0100577
-0.011068
-0.0120357
-0.0129532
-0.0138105
-0.0146017
-0.0153242
-0.0159709
-0.0165374
-0.0170143
-0.0174034
-0.0177012
-0.0179046
-0.0180131
-0.0180228
-0.0179375
-0.0177578
-0.0174843
-0.0171203
-0.0166678
-0.0161312
-0.0155147
-0.0148188
-0.0140807
0.00695907
0.00604485
0.00512857
0.00418267
0.00320973
0.00221244
0.0011908
0.000154046
-0.000901787
-0.00196705
-0.00303736
-0.00411122
-0.00518081
-0.00623694
-0.00727833
-0.00829872
-0.00928623
-0.0102368
-0.0111458
-0.0120059
-0.0128078
-0.013546
-0.0142178
-0.0148165
-0.015338
-0.0157737
-0.016125
-0.016389
-0.0165623
-0.0166449
-0.0166335
-0.0165312
-0.0163386
-0.016057
-0.0156889
-0.0152369
-0.014705
-0.0140969
-0.0134141
-0.0126896
0.00684208
0.00597349
0.00510232
0.00420318
0.00327854
0.002331
0.00136087
0.000376592
-0.000625029
-0.00163507
-0.00264929
-0.00366596
-0.00467774
-0.00567598
-0.0066593
-0.00762144
-0.00855153
-0.00944562
-0.0102989
-0.0111047
-0.0118543
-0.0125423
-0.0131662
-0.0137197
-0.0141989
-0.0145959
-0.0149119
-0.0151439
-0.0152895
-0.015348
-0.0153167
-0.0151987
-0.0149947
-0.0147055
-0.0143342
-0.0138828
-0.0133554
-0.012756
-0.0120848
-0.0113731
0.00673003
0.005905
0.00507694
0.00422252
0.00334398
0.00244397
0.001523
0.000588809
-0.000361118
-0.00131852
-0.00227929
-0.00324155
-0.00419832
-0.0051416
-0.00606962
-0.00697654
-0.00785219
-0.00869258
-0.00949327
-0.0102477
-0.0109478
-0.0115885
-0.0121673
-0.0126782
-0.0131175
-0.0134782
-0.0137609
-0.0139633
-0.0140827
-0.0141189
-0.0140694
-0.0139369
-0.0137221
-0.0134265
-0.0130522
-0.0126018
-0.0120791
-0.0114872
-0.0108276
-0.0101276
0.00662258
0.0058391
0.00505224
0.0042405
0.00340603
0.00255139
0.00167733
0.00079093
-0.000109716
-0.00101696
-0.00192683
-0.00283729
-0.00374176
-0.00463272
-0.00550833
-0.0063628
-0.00718678
-0.00797641
-0.00872717
-0.00943301
-0.0100864
-0.0106825
-0.0112186
-0.0116894
-0.0120913
-0.0124178
-0.0126695
-0.012844
-0.0129392
-0.0129546
-0.0128881
-0.0127423
-0.0125181
-0.0122162
-0.0118396
-0.0113904
-0.0108719
-0.0102879
-0.00963851
-0.00894951
0.00651936
0.00577553
0.005028
0.00425705
0.00346461
0.00265331
0.00182399
0.000983184
0.000129506
-0.000729947
-0.00159135
-0.00245253
-0.00330727
-0.00414858
-0.0049743
-0.00577907
-0.00655409
-0.00729552
-0.00799916
-0.00865909
-0.00926827
-0.00982221
-0.0103182
-0.0107513
-0.011118
-0.0114125
-0.011635
-0.0117837
-0.011856
-0.0118522
-0.0117701
-0.0116121
-0.0113789
-0.0110719
-0.0106933
-0.0102453
-0.00973133
-0.00915423
-0.00851503
-0.00783605
0.00642005
0.00571404
0.00500408
0.00427202
0.00351974
0.00274976
0.00196311
0.00116579
0.000356865
-0.000457075
-0.00127233
-0.00208664
-0.00289413
-0.00368817
-0.00446666
-0.00522423
-0.00595283
-0.00664872
-0.00730765
-0.00792415
-0.00849174
-0.00900586
-0.0094641
-0.00986168
-0.0101953
-0.0104598
-0.0106551
-0.0107793
-0.0108308