/*--------------------------------*- C++ -*----------------------------------*\
| =========                 |                                                 |
| \\      /  F ield         | OpenFOAM: The Open Source CFD Toolbox           |
|  \\    /   O peration     | Version:  3.0.1                                 |
|   \\  /    A nd           | Web:      www.OpenFOAM.org                      |
|    \\/     M anipulation  |                                                 |
\*---------------------------------------------------------------------------*/
FoamFile
{
    version     2.0;
    format      ascii;
    class       volScalarField;
    location    "500";
    object      nut;
}
// * * * * * * * * * * * * * * * * * * * * * * * * * * * * * * * * * * * * * //

dimensions      [0 2 -1 0 0 0 0];

internalField   nonuniform List<scalar> 
58000
(
0.000793339
0.000743454
0.000667557
0.000596681
0.000540728
0.000497174
0.000467289
0.0004432
0.000426765
0.00041656
0.000409126
0.00040467
0.000403395
0.000401901
0.000400365
0.000399613
0.000399769
0.0004005
0.000401575
0.000403044
0.000404955
0.000407087
0.000409428
0.000411757
0.000414287
0.000416688
0.00041911
0.000421515
0.000423757
0.000425974
0.000427923
0.000429683
0.000431185
0.000432356
0.000433276
0.000433358
0.000432459
0.000431224
0.000430049
0.000430679
0.00292162
0.00260218
0.00224682
0.00192519
0.00166688
0.00146207
0.00130556
0.00118071
0.00108465
0.00101315
0.000956731
0.000913973
0.000882224
0.000856567
0.000833246
0.000814996
0.000801415
0.000789607
0.000778467
0.000769345
0.00076276
0.000757109
0.000751897
0.000746846
0.000743535
0.00074057
0.000737672
0.00073481
0.000731872
0.000729731
0.000727912
0.000724673
0.000720116
0.00071459
0.000708548
0.000701443
0.000694434
0.000688649
0.000684437
0.000684004
0.00514271
0.00475938
0.00430925
0.00383714
0.00340511
0.00302999
0.00273093
0.00248498
0.00228687
0.00213317
0.00200893
0.00190723
0.00183107
0.00177077
0.00171941
0.00167977
0.00165017
0.00162565
0.00160396
0.00158674
0.00157426
0.00156356
0.00155352
0.00154352
0.00153613
0.00152836
0.0015194
0.00150946
0.00149852
0.00148902
0.00147945
0.00146936
0.00145875
0.00144729
0.00143483
0.0014199
0.00140293
0.00138566
0.00136971
0.00136137
0.00735591
0.00693204
0.00641523
0.00586963
0.00534429
0.00485245
0.00443463
0.00407545
0.00377624
0.00353791
0.00333767
0.00317082
0.00304185
0.00293679
0.00284596
0.00277393
0.00271818
0.00267147
0.00263036
0.00259703
0.00257145
0.00254923
0.00252704
0.00250438
0.00248627
0.0024697
0.00245291
0.00243561
0.00241725
0.00240042
0.0023831
0.00236446
0.0023446
0.00232359
0.00230231
0.00227825
0.00225163
0.00222433
0.0021985
0.0021809
0.00954553
0.00910054
0.00854952
0.00795893
0.00737068
0.0068084
0.00630846
0.00585914
0.00546935
0.00514837
0.00487174
0.00463588
0.00444898
0.00429396
0.00415831
0.00404862
0.00396181
0.00388783
0.00382169
0.0037664
0.00372136
0.00368124
0.00364349
0.00360684
0.0035775
0.00354985
0.00352151
0.00349234
0.00346212
0.00343568
0.0034087
0.00337986
0.00334922
0.00331691
0.0032847
0.0032495
0.00321127
0.00317202
0.00313443
0.00310527
0.0117077
0.0112501
0.0106809
0.0100616
0.00943805
0.00882676
0.00826935
0.00775657
0.00729603
0.00690486
0.00655953
0.00625806
0.00601314
0.0058064
0.00562322
0.00547179
0.00534921
0.0052436
0.00514739
0.00506499
0.00499762
0.0049378
0.00488248
0.00482809
0.00478184
0.00473956
0.00469775
0.00465598
0.00461261
0.00457266
0.00453342
0.00449319
0.00445057
0.00440565
0.00436083
0.00431286
0.00426142
0.00420868
0.00415767
0.004115
0.0138456
0.0133803
0.012802
0.0121671
0.0115226
0.010879
0.010282
0.00971922
0.00920528
0.00875877
0.00835617
0.0079955
0.00769593
0.00743888
0.00720912
0.0070147
0.00685375
0.00671229
0.0065838
0.00647321
0.00638223
0.00629978
0.00622179
0.00614724
0.00608416
0.00602576
0.00596799
0.00591008
0.00585202
0.00579795
0.00574486
0.00569101
0.00563437
0.0055751
0.00551597
0.00545367
0.00538762
0.00532002
0.00525419
0.00519639
0.0159629
0.0154926
0.0149098
0.0142672
0.0136106
0.0129471
0.0123218
0.0117251
0.0111702
0.0106763
0.0102242
0.00981486
0.00946753
0.00916382
0.0088871
0.0086504
0.00845216
0.00827616
0.00811513
0.00797524
0.00785646
0.00774949
0.00764869
0.00755296
0.00746926
0.00739254
0.00731803
0.00724321
0.00716769
0.00709825
0.00703001
0.00696075
0.00688855
0.00681356
0.00673878
0.00666091
0.00657906
0.00649546
0.00641357
0.00633934
0.018063
0.0175892
0.0170045
0.0163583
0.015695
0.0150203
0.0143765
0.0137559
0.0131685
0.0126403
0.0121491
0.0116963
0.011306
0.0109601
0.0106414
0.0103651
0.0101315
0.00992136
0.00972711
0.00955569
0.00940907
0.00927742
0.00915252
0.00903288
0.00892839
0.00883191
0.00873752
0.00864472
0.00855112
0.00846449
0.00837932
0.00829224
0.00820359
0.00811204
0.00802065
0.00792616
0.0078275
0.00772688
0.00762787
0.00753608
0.0201488
0.0196726
0.0190877
0.0184401
0.0177719
0.0170925
0.0164376
0.0158009
0.0151905
0.0146347
0.0141105
0.0136237
0.0131976
0.0128147
0.012458
0.0121442
0.011874
0.0116302
0.0114042
0.0112037
0.0110293
0.0108706
0.0107215
0.010578
0.0104502
0.0103333
0.0102187
0.0101062
0.00999307
0.00988773
0.00978457
0.00967954
0.00957315
0.00946402
0.00935493
0.00924279
0.00912635
0.0090078
0.00889074
0.00878045
0.0222228
0.0217449
0.021161
0.0205143
0.019845
0.0191626
0.0185002
0.0178524
0.0172256
0.0166475
0.0160991
0.0155841
0.0151274
0.0147108
0.01432
0.0139726
0.0136699
0.0133954
0.0131384
0.0129072
0.0127049
0.0125205
0.0123453
0.0121782
0.0120275
0.0118879
0.0117527
0.0116185
0.0114853
0.0113598
0.0112385
0.0111151
0.0109905
0.0108639
0.0107359
0.0106051
0.01047
0.0103328
0.010197
0.0100674
0.024287
0.0238079
0.0232254
0.022581
0.0219127
0.0212294
0.0205623
0.0199051
0.0192683
0.0186744
0.0181065
0.0175666
0.0170833
0.0166406
0.016221
0.0158435
0.0155106
0.0152049
0.0149181
0.0146593
0.0144299
0.0142184
0.0140181
0.0138254
0.0136519
0.0134901
0.0133334
0.0131777
0.0130223
0.0128771
0.0127367
0.0125937
0.0124501
0.0123044
0.0121574
0.0120077
0.0118537
0.0116974
0.0115422
0.0113929
0.026343
0.0258628
0.0252823
0.0246408
0.0239746
0.0232923
0.0226231
0.0219607
0.0213159
0.0207101
0.020127
0.019568
0.0190628
0.0185963
0.0181508
0.0177463
0.0173862
0.0170529
0.0167379
0.0164504
0.0161953
0.0159583
0.0157319
0.015515
0.0153168
0.0151317
0.0149539
0.014777
0.0146003
0.0144347
0.0142744
0.0141113
0.0139478
0.0137825
0.013616
0.013447
0.0132737
0.0130978
0.012923
0.0127534
0.0283923
0.027911
0.0273325
0.0266942
0.0260311
0.0253508
0.0246813
0.0240162
0.0233658
0.0227506
0.0221553
0.0215814
0.0210581
0.0205705
0.0201009
0.0196718
0.0192868
0.0189296
0.0185891
0.0182755
0.0179936
0.0177324
0.0174817
0.0172409
0.0170188
0.0168102
0.0166089
0.0164112
0.0162134
0.0160272
0.0158467
0.0156634
0.015479
0.0152941
0.0151082
0.0149198
0.0147269
0.0145312
0.0143363
0.0141461
0.0304365
0.0299533
0.0293767
0.028742
0.0280823
0.027405
0.0267363
0.0260701
0.0254162
0.0247937
0.0241874
0.0236025
0.0230643
0.0225579
0.02207
0.0216201
0.0212124
0.0208298
0.0204645
0.0201272
0.0198206
0.0195343
0.0192606
0.0189961
0.0187509
0.0185196
0.0182952
0.0180766
0.0178578
0.0176498
0.0174496
0.0172466
0.0170421
0.0168373
0.0166316
0.0164234
0.0162106
0.0159949
0.0157795
0.0155684
0.0324723
0.031989
0.031415
0.0307844
0.0301287
0.0294549
0.028788
0.028122
0.0274661
0.0268387
0.0262246
0.0256299
0.0250791
0.0245581
0.0240539
0.0235858
0.0231577
0.0227529
0.0223636
0.0220012
0.0216701
0.0213613
0.0210646
0.0207746
0.0205072
0.0202561
0.0200102
0.0197694
0.0195307
0.019302
0.0190805
0.0188581
0.0186339
0.0184093
0.0181835
0.0179554
0.0177224
0.0174864
0.0172504
0.0170181
0.0345022
0.034019
0.0334481
0.0328219
0.0321706
0.0315007
0.0308363
0.0301714
0.0295148
0.0288841
0.0282644
0.0276615
0.0270987
0.0265664
0.0260487
0.0255645
0.0251182
0.024693
0.0242804
0.0238962
0.0235424
0.0232096
0.0228901
0.0225791
0.0222901
0.0220185
0.0217516
0.0214893
0.0212303
0.0209811
0.0207389
0.0204966
0.0202523
0.0200075
0.0197616
0.0195132
0.01926
0.0190035
0.0187467
0.018493
0.036527
0.0360441
0.0354764
0.0348549
0.0342083
0.0335426
0.0328812
0.0322181
0.0315618
0.030929
0.0303054
0.0296965
0.0291247
0.0285817
0.0280518
0.0275532
0.0270904
0.026647
0.0262138
0.0258074
0.0254337
0.0250794
0.0247389
0.0244063
0.0240959
0.0238038
0.0235161
0.0232329
0.0229537
0.0226841
0.0224215
0.0221591
0.0218947
0.0216297
0.0213635
0.0210948
0.0208213
0.0205441
0.0202664
0.0199914
0.0385468
0.0380643
0.0375001
0.0368837
0.0362423
0.0355809
0.0349227
0.0342619
0.0336066
0.0329728
0.0323465
0.0317331
0.0311541
0.030602
0.0300612
0.0295495
0.0290715
0.0286117
0.0281603
0.0277342
0.0273416
0.026966
0.0266033
0.0262515
0.0259209
0.0256085
0.0253006
0.0249971
0.0246981
0.0244083
0.0241255
0.0238433
0.0235588
0.0232735
0.0229869
0.022698
0.0224042
0.0221065
0.0218079
0.0215115
0.0405616
0.0400798
0.0395192
0.0389081
0.0382734
0.0376157
0.0369608
0.0363028
0.0356491
0.0350151
0.0343871
0.0337703
0.0331855
0.0326256
0.0320753
0.0315518
0.0310586
0.0305845
0.030117
0.0296728
0.02926
0.0288663
0.0284841
0.0281132
0.0277625
0.0274291
0.0271023
0.0267793
0.0264608
0.0261513
0.0258487
0.0255467
0.0252422
0.0249365
0.0246299
0.024321
0.024007
0.0236889
0.0233695
0.0230517
0.0425714
0.0420905
0.0415334
0.0409274
0.0402981
0.0396457
0.0389949
0.0383402
0.0376888
0.0370554
0.0364268
0.0358076
0.0352181
0.0346514
0.034093
0.0335594
0.0330539
0.0325646
0.0320826
0.0316218
0.0311912
0.0307794
0.0303784
0.0299888
0.0296189
0.0292658
0.02892
0.0285776
0.0282396
0.0279108
0.0275888
0.0272675
0.0269431
0.0266165
0.0262906
0.0259622
0.0256283
0.0252899
0.0249498
0.0246107
0.0445761
0.0440963
0.0435429
0.042942
0.042318
0.041671
0.0410248
0.0403741
0.0397254
0.0390935
0.0384652
0.0378444
0.0372512
0.0366784
0.0361126
0.0355704
0.0350558
0.0345539
0.0340561
0.0335792
0.0331326
0.0327027
0.0322834
0.0318756
0.0314875
0.0311158
0.0307515
0.0303899
0.0300317
0.0296848
0.0293442
0.029004
0.0286604
0.0283142
0.0279687
0.0276207
0.0272668
0.0269082
0.0265474
0.0261871
0.0465752
0.0460968
0.0455476
0.0449522
0.0443333
0.0436918
0.0430506
0.0424043
0.0417586
0.0411285
0.0405024
0.03988
0.0392848
0.0387056
0.0381329
0.0375824
0.0370581
0.0365448
0.0360337
0.0355419
0.0350781
0.034633
0.0341969
0.0337706
0.033366
0.0329769
0.0325949
0.032215
0.0318381
0.0314728
0.0311136
0.0307549
0.0303925
0.0300274
0.0296626
0.0292948
0.0289211
0.0285423
0.0281611
0.0277797
0.0485683
0.0480917
0.047547
0.0469583
0.0463436
0.0457075
0.0450716
0.0444313
0.0437878
0.0431593
0.0425343
0.0419117
0.0413145
0.0407311
0.0401527
0.0395947
0.0390611
0.0385372
0.0380141
0.0375088
0.0370301
0.0365699
0.0361179
0.035675
0.0352538
0.0348477
0.0344485
0.034051
0.0336561
0.0332728
0.0328955
0.0325185
0.0321379
0.0317552
0.0313706
0.0309831
0.0305897
0.030191
0.0297894
0.0293873
0.0505548
0.0500802
0.0495402
0.0489568
0.0483477
0.0477175
0.0470869
0.0464514
0.0458117
0.0451855
0.044562
0.0439398
0.0433411
0.0427546
0.0421714
0.0416065
0.0410642
0.0405302
0.0399962
0.0394785
0.0389862
0.0385117
0.0380447
0.0375862
0.0371491
0.0367266
0.0363108
0.0358963
0.0354839
0.0350832
0.0346881
0.0342932
0.0338946
0.0334937
0.0330904
0.0326838
0.0322711
0.0318528
0.0314312
0.0310086
0.052534
0.0520619
0.0515277
0.0509486
0.0503451
0.0497213
0.0490966
0.0484659
0.0478304
0.0472071
0.0465855
0.0459642
0.0453648
0.0447762
0.0441887
0.0436175
0.0430667
0.0425228
0.0419786
0.0414496
0.0409447
0.0404569
0.0399758
0.0395025
0.0390503
0.0386119
0.03818
0.0377491
0.0373201
0.0369024
0.03649
0.0360777
0.0356614
0.0352425
0.0348209
0.0343957
0.0339641
0.0335266
0.0330854
0.0326426
0.0545049
0.0540356
0.0535058
0.0529323
0.0523353
0.0517185
0.0511012
0.0504745
0.0498435
0.0492238
0.0486045
0.047985
0.0473852
0.0467962
0.0462045
0.045627
0.0450679
0.0445134
0.0439604
0.043421
0.0429043
0.0424039
0.0419095
0.0414224
0.0409556
0.0405021
0.0400547
0.0396081
0.039163
0.0387291
0.0383
0.0378707
0.0374371
0.0370006
0.036561
0.0361177
0.0356677
0.0352114
0.034751
0.0342884
0.0564668
0.0560016
0.0554753
0.0549077
0.0543175
0.053708
0.0530968
0.0524758
0.0518501
0.0512358
0.0506183
0.0500018
0.0494008
0.0488104
0.0482175
0.0476341
0.0470675
0.0465037
0.0459412
0.0453917
0.0448638
0.0443516
0.0438447
0.0433444
0.0428639
0.0423958
0.0419333
0.0414718
0.0410116
0.040562
0.0401168
0.0396709
0.0392205
0.0387669
0.0383099
0.0378489
0.0373808
0.0369062
0.036427
0.0359451
0.0584183
0.0579562
0.0574351
0.0568741
0.0562913
0.0556904
0.0550844
0.0544692
0.0538494
0.0532391
0.0526248
0.0520107
0.0514103
0.0508185
0.0502235
0.0496374
0.0490643
0.0484909
0.0479193
0.0473602
0.0468218
0.0462984
0.0457798
0.0452673
0.0447737
0.0442916
0.0438136
0.0433393
0.0428649
0.0424001
0.0419392
0.0414774
0.0410106
0.0405404
0.0400664
0.0395881
0.0391026
0.0386101
0.0381126
0.0376118
0.0603589
0.0599
0.0593846
0.0588309
0.0582557
0.0576621
0.0570627
0.0564543
0.0558418
0.0552348
0.054624
0.0540123
0.0534143
0.0528206
0.0522228
0.0516321
0.0510524
0.0504719
0.0498926
0.0493249
0.0487769
0.0482433
0.0477138
0.0471899
0.0466841
0.0461889
0.0456973
0.0452096
0.0447214
0.0442421
0.0437661
0.0432888
0.0428063
0.0423199
0.0418296
0.0413346
0.0408321
0.0403223
0.039807
0.0392879
0.0622881
0.0618328
0.0613236
0.0607779
0.0602113
0.0596239
0.0590314
0.05843
0.0578236
0.0572216
0.056616
0.0560058
0.0554087
0.0548159
0.054216
0.0536193
0.0530316
0.0524456
0.0518597
0.0512845
0.0507279
0.0501849
0.0496455
0.049111
0.0485939
0.0480866
0.0475823
0.0470817
0.0465803
0.0460871
0.0455966
0.0451043
0.0446064
0.0441046
0.0435985
0.0430875
0.0425686
0.042042
0.0415095
0.0409725
0.064205
0.0637537
0.0632511
0.0627144
0.0621545
0.0615745
0.0609897
0.0603969
0.0597958
0.0591988
0.0585974
0.0579902
0.057394
0.0568
0.0561979
0.0555981
0.0550038
0.0544119
0.0538201
0.0532381
0.0526737
0.0521222
0.0515737
0.0510296
0.0505019
0.0499833
0.0494673
0.0489546
0.0484405
0.047934
0.0474295
0.0469225
0.0464097
0.0458934
0.0453723
0.0448459
0.0443112
0.0437684
0.0432192
0.0426651
0.0661089
0.0656618
0.0651661
0.0646369
0.0640849
0.0635133
0.0629365
0.0623512
0.0617572
0.0611669
0.060569
0.059966
0.0593708
0.0587744
0.0581691
0.0575638
0.0569659
0.0563694
0.0557725
0.0551847
0.0546134
0.0540542
0.0534975
0.0529446
0.0524073
0.0518782
0.0513512
0.0508271
0.0503011
0.0497819
0.0492639
0.0487421
0.048216
0.0476858
0.0471505
0.0466092
0.0460593
0.0455009
0.0449356
0.0443649
0.0679986
0.0675563
0.0670687
0.0665461
0.0660024
0.06544
0.0648724
0.0642935
0.0637075
0.0631218
0.0625295
0.0619286
0.0613343
0.0607381
0.0601299
0.0595197
0.0589177
0.0583172
0.057716
0.0571232
0.0565459
0.05598
0.055416
0.0548551
0.054309
0.0537703
0.0532331
0.0526983
0.0521611
0.05163
0.0510994
0.0505644
0.0500251
0.0494815
0.0489322
0.0483767
0.0478122
0.0472387
0.046658
0.0460713
0.0698734
0.0694356
0.068955
0.0684408
0.0679064
0.0673541
0.0667937
0.0662222
0.065643
0.065063
0.0644752
0.0638784
0.0632847
0.0626869
0.062074
0.0614622
0.0608578
0.0602543
0.0596498
0.0590529
0.0584705
0.0578987
0.0573282
0.0567603
0.0562061
0.0556586
0.055112
0.0545672
0.0540196
0.0534773
0.052935
0.0523877
0.0518358
0.0512793
0.0507168
0.0501476
0.049569
0.0489812
0.0483856
0.0477837
0.0717325
0.0712991
0.0708255
0.0703203
0.0697961
0.0692519
0.0687003
0.0681379
0.0675649
0.0669915
0.0664074
0.0658116
0.0652176
0.0646169
0.0640038
0.0633913
0.0627852
0.0621798
0.0615729
0.0609729
0.0603863
0.0598095
0.0592334
0.0586592
0.0580979
0.0575423
0.056987
0.056433
0.0558757
0.055323
0.0547696
0.0542109
0.0536472
0.0530785
0.0525034
0.0519211
0.0513291
0.0507275
0.0501178
0.0495016
0.0735751
0.0731461
0.0726793
0.0721841
0.0716679
0.0711333
0.0705917
0.0700368
0.0694719
0.0689035
0.0683218
0.0677291
0.0671348
0.0665321
0.0659188
0.0653062
0.0646995
0.0640929
0.0634846
0.0628824
0.0622926
0.0617117
0.0611308
0.0605512
0.0599834
0.0594206
0.0588574
0.0582948
0.0577282
0.0571659
0.0566023
0.0560331
0.0554583
0.0548781
0.054291
0.0536964
0.0530917
0.052477
0.0518539
0.0512242
0.0754005
0.0749757
0.0745151
0.0740283
0.0735217
0.0729978
0.0724644
0.0719188
0.0713603
0.0707954
0.0702181
0.0696269
0.0690308
0.0684298
0.0678179
0.0672062
0.0665999
0.0659932
0.0653843
0.0647808
0.0641886
0.0636045
0.0630196
0.0624353
0.0618619
0.0612925
0.0607221
0.0601516
0.059576
0.0590052
0.0584324
0.0578534
0.0572683
0.0566774
0.056079
0.0554727
0.0548558
0.0542288
0.0535932
0.052951
0.077208
0.0767872
0.0763326
0.0758535
0.0753571
0.0748421
0.0743187
0.0737807
0.0732274
0.0726675
0.072093
0.0715018
0.0709085
0.07031
0.0697007
0.0690909
0.0684858
0.0678798
0.0672712
0.0666674
0.0660739
0.0654872
0.0648992
0.0643109
0.0637325
0.0631573
0.0625804
0.0620028
0.0614196
0.0608405
0.0602591
0.059671
0.0590764
0.0584755
0.0578665
0.057249
0.0566208
0.0559821
0.0553349
0.0546814
0.0789971
0.0785802
0.078131
0.0776587
0.0771707
0.0766659
0.0761513
0.0756201
0.075074
0.0745167
0.073944
0.0733573
0.0727679
0.0721727
0.0715667
0.0709598
0.0703566
0.0697521
0.0691448
0.0685416
0.067948
0.0673594
0.0667686
0.066177
0.0655943
0.0650141
0.0644315
0.0638476
0.0632574
0.0626709
0.0620815
0.061485
0.0608821
0.0602717
0.0596526
0.0590246
0.0583856
0.0577361
0.0570782
0.0564148
0.0807669
0.080354
0.07991
0.079444
0.078963
0.0784662
0.0779597
0.0774376
0.0768985
0.0763446
0.0757759
0.0751938
0.0746087
0.0740177
0.0734158
0.0728123
0.0722119
0.0716097
0.0710042
0.0704025
0.0698108
0.06922
0.0686269
0.0680327
0.0674465
0.0668619
0.0662743
0.0656848
0.0650885
0.0644952
0.0638985
0.0632947
0.062685
0.062065
0.0614363
0.0607984
0.0601494
0.05949
0.0588225
0.0581506
0.0825167
0.0821079
0.0816692
0.0812092
0.0807347
0.0802448
0.0797455
0.0792307
0.0786987
0.0781507
0.0775875
0.0770109
0.0764309
0.0758447
0.0752474
0.0746481
0.074051
0.0734517
0.0728488
0.072249
0.0716583
0.0710672
0.0704731
0.0698772
0.0692882
0.0687
0.0681081
0.0675135
0.0669117
0.0663123
0.065709
0.0650983
0.0644815
0.0638535
0.0632161
0.0625693
0.0619112
0.0612427
0.0605668
0.0598881
0.0842459
0.0838413
0.0834079
0.0829539
0.0824857
0.0820025
0.0815098
0.081002
0.0804769
0.0799355
0.0793786
0.0788083
0.078234
0.0776531
0.0770611
0.0764665
0.0758734
0.0752776
0.0746779
0.0740805
0.0734912
0.0729006
0.0723063
0.0717096
0.0711186
0.0705274
0.0699317
0.0693327
0.068726
0.0681212
0.067512
0.066895
0.0662715
0.0656363
0.0649912
0.0643364
0.0636701
0.0629936
0.0623105
0.0616268
0.0859535
0.0855533
0.0851254
0.0846775
0.0842157
0.0837391
0.0832531
0.082752
0.0822339
0.0816993
0.0811493
0.0805857
0.0800177
0.0794426
0.0788563
0.0782669
0.0776784
0.0770867
0.0764908
0.0758966
0.0753092
0.0747196
0.074126
0.0735296
0.072937
0.0723431
0.0717442
0.071141
0.0705303
0.0699208
0.0693065
0.068684
0.0680545
0.0674128
0.0667609
0.0660988
0.0654251
0.0647416
0.0640527
0.0633661
0.0876389
0.0872434
0.0868211
0.0863794
0.085924
0.0854543
0.0849749
0.0844807
0.0839696
0.0834422
0.0828993
0.0823428
0.0817813
0.0812125
0.0806324
0.0800488
0.0794653
0.0788784
0.078287
0.0776969
0.0771116
0.0765235
0.0759311
0.0753368
0.0747422
0.0741461
0.0735447
0.072937
0.0723234
0.0717103
0.0710917
0.0704645
0.0698297
0.0691824
0.0685243
0.0678557
0.0671755
0.0664861
0.0657926
0.0651052
0.0893011
0.0889105
0.0884941
0.0880588
0.0876101
0.0871472
0.0866747
0.0861875
0.0856837
0.0851635
0.084628
0.084079
0.0835245
0.0829623
0.0823888
0.0818113
0.0812335
0.0806518
0.0800656
0.0794814
0.0788977
0.0783111
0.0777202
0.077127
0.0765322
0.0759351
0.0753329
0.0747216
0.0741051
0.0734889
0.0728668
0.0722356
0.0715963
0.070944
0.0702805
0.0696061
0.0689204
0.0682259
0.0675295
0.0668436
0.0909395
0.090554
0.0901437
0.089715
0.0892731
0.0888173
0.0883518
0.0878719
0.0873755
0.0868629
0.086335
0.0857936
0.0852464
0.0846913
0.0841248
0.0835539
0.082982
0.082406
0.0818253
0.0812459
0.0806655
0.0800814
0.0794924
0.0789007
0.0783062
0.0777084
0.0771038
0.076492
0.075874
0.0752556
0.0746308
0.0739969
0.0733536
0.0726969
0.0720285
0.0713492
0.0706586
0.0699603
0.0692622
0.0685804
0.0925533
0.0921732
0.0917691
0.0913472
0.0909124
0.0904638
0.0900056
0.0895331
0.0890443
0.0885395
0.0880195
0.0874861
0.0869464
0.0863986
0.0858395
0.0852756
0.0847103
0.0841405
0.0835656
0.0829911
0.0824145
0.0818335
0.0812472
0.0806573
0.0800637
0.0794658
0.0788606
0.0782481
0.0776293
0.0770093
0.0763828
0.075748
0.0751007
0.0744398
0.0737673
0.0730837
0.0723893
0.071688
0.0709899
0.0703145
0.0941418
0.0937673
0.0933697
0.0929548
0.0925271
0.0920861
0.0916352
0.0911704
0.0906896
0.0901927
0.0896809
0.0891557
0.0886239
0.0880837
0.0875323
0.0869758
0.0864175
0.0858546
0.0852864
0.0847168
0.0841442
0.0835668
0.0829841
0.0823962
0.0818038
0.0812065
0.0806015
0.0799891
0.0793699
0.0787492
0.0781213
0.077485
0.0768352
0.0761714
0.0754956
0.0748087
0.0741112
0.0734083
0.0727115
0.0720451
0.0957043
0.0953357
0.0949447
0.094537
0.0941167
0.0936833
0.0932401
0.0927831
0.0923105
0.0918219
0.0913185
0.0908016
0.090278
0.0897458
0.0892023
0.0886537
0.0881029
0.0875476
0.0869877
0.0864221
0.0858534
0.0852802
0.0847027
0.0841163
0.0835253
0.0829291
0.0823251
0.0817136
0.0810951
0.0804742
0.0798456
0.0792079
0.0785564
0.0778906
0.0772125
0.0765231
0.0758236
0.0751199
0.074426
0.073771
0.0972404
0.0968778
0.0964936
0.0960932
0.0956805
0.0952548
0.0948195
0.0943707
0.0939064
0.0934264
0.0929315
0.0924233
0.091908
0.0913841
0.090849
0.0903085
0.0897657
0.0892185
0.0886653
0.088105
0.087541
0.0869721
0.0863987
0.0858154
0.0852268
0.0846325
0.0840305
0.0834209
0.0828043
0.0821837
0.0815546
0.0809162
0.0802637
0.0795967
0.0789171
0.0782261
0.0775253
0.0768218
0.0761321
0.0754909
0.0987493
0.0983929
0.0980157
0.0976227
0.0972177
0.0968001
0.0963729
0.0959324
0.0954768
0.0950055
0.0945194
0.09402
0.0935133
0.0929979
0.0924714
0.0919395
0.0914052
0.0908675
0.0903198
0.089765
0.089206
0.0886417
0.0880724
0.087493
0.0869076
0.0863153
0.0857165
0.0851101
0.0844973
0.0838767
0.0832471
0.0826088
0.0819563
0.0812888
0.0806084
0.0799166
0.0792154
0.0785131
0.0778289
0.0772035
0.100231
0.0998806
0.0995105
0.0991252
0.098728
0.0983185
0.0978995
0.0974676
0.0970209
0.0965588
0.0960816
0.0955912
0.0950932
0.0945865
0.094069
0.093546
0.0930202
0.0924905
0.0919498
0.0914012
0.0908479
0.0902884
0.0897232
0.0891484
0.0885672
0.0879785
0.0873829
0.0867802
0.0861702
0.0855512
0.0849227
0.0842853
0.0836333
0.0829661
0.0822857
0.0815938
0.080893
0.0801927
0.079515
0.0789074
0.101684
0.10134
0.100978
0.1006
0.100211
0.0998095
0.0993989
0.0989757
0.0985384
0.098086
0.0976176
0.0971361
0.096647
0.0961493
0.0956411
0.0951274
0.0946108
0.0940887
0.093555
0.0930132
0.092466
0.0919119
0.0913501
0.0907813
0.0902051
0.0896211
0.0890302
0.0884314
0.0878242
0.0872074
0.0865806
0.0859447
0.0852939
0.0846277
0.0839481
0.0832568
0.0825571
0.0818596
0.0811894
0.080601
0.103109
0.102772
0.102417
0.102047
0.101666
0.101273
0.10087
0.100456
0.100028
0.0995872
0.0991267
0.098654
0.098174
0.0976857
0.0971872
0.0966833
0.0961773
0.0956616
0.0951349
0.0946003
0.09406
0.093512
0.0929554
0.0923918
0.0918206
0.0912419
0.0906579
0.0900633
0.0894583
0.0888439
0.0882197
0.0875861
0.0869374
0.0862729
0.0855947
0.0849047
0.0842067
0.0835127
0.0828507
0.082283
0.104505
0.104175
0.103827
0.103465
0.103092
0.102708
0.102314
0.101908
0.10149
0.101058
0.100607
0.100144
0.0996737
0.099195
0.0987066
0.0982129
0.0977156
0.0972076
0.0966887
0.0961619
0.0956296
0.095088
0.0945373
0.0939791
0.0934123
0.0928398
0.0922616
0.0916719
0.0910702
0.0904595
0.0898393
0.0892089
0.088563
0.0879009
0.0872247
0.0865366
0.0858409
0.0851509
0.0844978
0.0839517
0.105872
0.105549
0.105208
0.104855
0.10449
0.104114
0.103729
0.103332
0.102923
0.1025
0.102059
0.101606
0.101145
0.100677
0.100199
0.0997167
0.0992266
0.0987264
0.0982156
0.0976974
0.0971749
0.0966392
0.0960945
0.0955422
0.0949811
0.0944145
0.0938422
0.0932578
0.0926611
0.0920549
0.0914395
0.0908128
0.0901699
0.0895107
0.0888371
0.0881515
0.0874587
0.0867733
0.0861294
0.0856055
0.107209
0.106894
0.106561
0.106215
0.105859
0.105491
0.105115
0.104727
0.104327
0.103914
0.103483
0.103039
0.102589
0.102131
0.101664
0.101191
0.100709
0.100217
0.0997152
0.0992059
0.0986919
0.0981637
0.0976259
0.09708
0.0965257
0.0959656
0.0953995
0.094821
0.0942299
0.0936292
0.0930203
0.0923968
0.0917572
0.0911013
0.0904309
0.0897484
0.0890591
0.0883787
0.0877445
0.0872431
0.108518
0.108209
0.107884
0.107546
0.107198
0.10684
0.106472
0.106093
0.105702
0.105299
0.104877
0.104444
0.104004
0.103557
0.103102
0.102636
0.102163
0.10168
0.101187
0.100687
0.100182
0.0996615
0.0991311
0.0985915
0.0980452
0.0974925
0.0969331
0.0963609
0.0957758
0.095181
0.0945776
0.0939588
0.0933235
0.0926717
0.0920052
0.0913264
0.0906412
0.0899662
0.0893418
0.088863
0.109796
0.109495
0.109178
0.108848
0.108509
0.108159
0.1078
0.10743
0.107048
0.106655
0.106243
0.10582
0.105391
0.104956
0.104508
0.104052
0.103587
0.103114
0.102631
0.102143
0.101644
0.101132
0.10061
0.100078
0.0995401
0.0989952
0.0984427
0.0978771
0.0972983
0.0967096
0.0961119
0.0954984
0.0948681
0.0942211
0.0935591
0.0928847
0.092204
0.0915347
0.0909203
0.090464
0.111045
0.110751
0.110442
0.110121
0.10979
0.109448
0.109098
0.108737
0.108365
0.107981
0.10758
0.107167
0.106747
0.106322
0.105884
0.105437
0.104982
0.104519
0.104047
0.103568
0.103078
0.102575
0.102062
0.101539
0.10101
0.100473
0.0999277
0.0993685
0.0987964
0.0982146
0.0976229
0.097015
0.0963903
0.0957486
0.0950918
0.0944224
0.0937468
0.0930836
0.0924791
0.0920449
0.112264
0.111978
0.111676
0.111364
0.111041
0.110708
0.110367
0.110016
0.109653
0.109279
0.108888
0.108485
0.108075
0.107658
0.10723
0.106794
0.106349
0.105895
0.105435
0.104964
0.104484
0.103991
0.103487
0.102974
0.102455
0.101927
0.101387
0.100834
0.100269
0.0996961
0.09911
0.0985079
0.0978892
0.0972535
0.0966026
0.0959388
0.0952689
0.0946121
0.0940174
0.0936047
0.113454
0.113175
0.112881
0.112577
0.112263
0.111939
0.111607
0.111264
0.110911
0.110548
0.110168
0.109774
0.109373
0.108964
0.108547
0.108121
0.107686
0.107242
0.106791
0.10633
0.105859
0.105377
0.104883
0.104381
0.103871
0.103351
0.102818
0.102273
0.101715
0.10115
0.100571
0.0999761
0.0993642
0.0987353
0.0980909
0.0974333
0.0967696
0.0961195
0.0955344
0.0951425
0.114614
0.114342
0.114057
0.113761
0.113455
0.11314
0.112817
0.112484
0.11214
0.111787
0.111419
0.111034
0.110642
0.110242
0.109835
0.109419
0.108994
0.108559
0.108119
0.107667
0.107206
0.106734
0.10625
0.105758
0.105257
0.104745
0.104221
0.103684
0.103134
0.102577
0.102006
0.101419
0.100815
0.100194
0.0995563
0.0989056
0.0982484
0.0976053
0.0970296
0.0966574
0.115745
0.11548
0.115203
0.114915
0.114618
0.114312
0.113997
0.113674
0.11334
0.112996
0.112639
0.112264
0.111882
0.111492
0.111095
0.110688
0.110273
0.109848
0.109416
0.108975
0.108524
0.108062
0.107589
0.107107
0.106615
0.106111
0.105595
0.105067
0.104527
0.103979
0.103416
0.102837
0.102241
0.101628
0.100998
0.100355
0.0997051
0.099069
0.0985026
0.098149
0.116846
0.116589
0.11632
0.11604
0.115752
0.115454
0.115149
0.114834
0.11451
0.114176
0.113829
0.113465
0.113093
0.112713
0.112326
0.111929
0.111524
0.111108
0.110684
0.110254
0.109813
0.109362
0.108899
0.108427
0.107944
0.10745
0.106943
0.106424
0.105893
0.105354
0.104801
0.104231
0.103643
0.103039
0.102417
0.101782
0.101139
0.10051
0.0999528
0.0996167
0.117918
0.117669
0.117408
0.117137
0.116857
0.116568
0.116271
0.115965
0.115651
0.115326
0.114989
0.114637
0.114275
0.113905
0.113528
0.113141
0.112746
0.11234
0.111926
0.111505
0.111075
0.110633
0.110181
0.109718
0.109245
0.108761
0.108264
0.107755
0.107233
0.106704
0.10616
0.105599
0.105021
0.104425
0.103812
0.103185
0.10255
0.101929
0.10138
0.10106
0.118962
0.11872
0.118467
0.118204
0.117932
0.117652
0.117365
0.117068
0.116762
0.116448
0.116122
0.11578
0.115428
0.115068
0.1147
0.114324
0.113939
0.113544
0.113139
0.112728
0.112308
0.111877
0.111435
0.110981
0.110518
0.110044
0.109558
0.109059
0.108547
0.108028
0.107494
0.106943
0.106374
0.105787
0.105184
0.104565
0.103939
0.103325
0.102784
0.102479
0.119977
0.119743
0.119497
0.119243
0.11898
0.118708
0.118429
0.118142
0.117846
0.117541
0.117225
0.116895
0.116553
0.116203
0.115844
0.115479
0.115104
0.11472
0.114325
0.113922
0.113513
0.113093
0.112661
0.112218
0.111764
0.111301
0.110825
0.110336
0.109836
0.109327
0.108803
0.108261
0.107702
0.107125
0.106531
0.105922
0.105304
0.104697
0.104164
0.103872
0.120964
0.120737
0.1205
0.120253
0.119998
0.119736
0.119466
0.119187
0.1189
0.118605
0.1183
0.117982
0.11765
0.11731
0.11696
0.116605
0.116241
0.115867
0.115483
0.11509
0.114691
0.114281
0.11386
0.113427
0.112984
0.11253
0.112065
0.111587
0.111101
0.110601
0.110086
0.109555
0.109006
0.108439
0.107854
0.107254
0.106645
0.106047
0.10552
0.105241
0.121923
0.121704
0.121474
0.121236
0.120989
0.120735
0.120474
0.120205
0.119927
0.119642
0.119346
0.119039
0.118718
0.118388
0.118049
0.117704
0.11735
0.116987
0.116613
0.116231
0.115841
0.115442
0.115032
0.11461
0.114177
0.113734
0.113279
0.112813
0.112338
0.111849
0.111344
0.110823
0.110284
0.109728
0.109153
0.108563
0.107963
0.107372
0.106853
0.106584
0.122855
0.122643
0.122421
0.122191
0.121953
0.121707
0.121455
0.121194
0.120926
0.12065
0.120365
0.120068
0.119758
0.119439
0.11911
0.118775
0.118432
0.118079
0.117716
0.117344
0.116964
0.116576
0.116176
0.115765
0.115344
0.114911
0.114467
0.114013
0.113549
0.11307
0.112577
0.112066
0.111538
0.110992
0.110428
0.109847
0.109256
0.108674
0.108161
0.107901
0.12376
0.123555
0.123341
0.123118
0.122889
0.122652
0.122408
0.122157
0.121898
0.121631
0.121356
0.12107
0.120772
0.120462
0.120144
0.119818
0.119485
0.119144
0.118792
0.118431
0.118061
0.117683
0.117294
0.116894
0.116483
0.116062
0.11563
0.115189
0.114735
0.114267
0.113783
0.113284
0.112766
0.112231
0.111678
0.111108
0.110526
0.109952
0.109446
0.109193
0.124638
0.12444
0.124234
0.12402
0.123798
0.12357
0.123335
0.123092
0.122842
0.122585
0.122319
0.122044
0.121759
0.121459
0.121151
0.120835
0.120513
0.120182
0.119841
0.11949
0.119131
0.118763
0.118385
0.117996
0.117597
0.117187
0.116766
0.116336
0.115894
0.115437
0.114965
0.114476
0.11397
0.113445
0.112903
0.112343
0.111771
0.111206
0.110705
0.110459
0.12549
0.1253
0.125101
0.124895
0.124682
0.124462
0.124235
0.124001
0.12376
0.123512
0.123256