/*--------------------------------*- C++ -*----------------------------------*\
| =========                 |                                                 |
| \\      /  F ield         | OpenFOAM: The Open Source CFD Toolbox           |
|  \\    /   O peration     | Version:  3.0.1                                 |
|   \\  /    A nd           | Web:      www.OpenFOAM.org                      |
|    \\/     M anipulation  |                                                 |
\*---------------------------------------------------------------------------*/
FoamFile
{
    version     2.0;
    format      ascii;
    class       surfaceScalarField;
    location    "500";
    object      phi;
}
// * * * * * * * * * * * * * * * * * * * * * * * * * * * * * * * * * * * * * //

dimensions      [0 3 -1 0 0 0 0];

internalField   nonuniform List<scalar> 
115520
(
0.0146211
-0.001732
-0.0128891
0.0155582
-0.000937045
0.0154915
6.6704e-05
0.0149049
0.00058661
0.0140747
0.000830263
0.013167
0.000907677
0.0123741
0.000792944
0.0116463
0.000727843
0.011094
0.000552291
0.0107133
0.000380699
0.0104511
0.000262264
0.0103172
0.000133925
0.0103117
5.56144e-06
0.0103727
-6.09959e-05
0.0104784
-0.000105703
0.0106287
-0.000150243
0.0108093
-0.000180545
0.0109997
-0.000190431
0.0111903
-0.000190608
0.0113817
-0.000191405
0.011577
-0.000195243
0.0117657
-0.000188689
0.0119437
-0.000177965
0.0121079
-0.000164231
0.0122682
-0.000160288
0.0124195
-0.000151231
0.0125591
-0.000139595
0.0126855
-0.000126379
0.0127973
-0.000111781
0.0129022
-0.000104924
0.0129958
-9.36236e-05
0.013077
-8.11597e-05
0.0131452
-6.81642e-05
0.0131999
-5.47459e-05
0.0132309
-3.09359e-05
0.01321
2.08442e-05
0.013163
4.70703e-05
0.0131179
4.50924e-05
0.0131044
1.3486e-05
-4.05314e-05
0.0131449
0.00964646
-0.00284644
-0.00853202
0.0106484
-0.00193901
0.0116015
-0.000886361
0.0124466
-0.000258439
0.0131168
0.000160047
0.0135792
0.000445284
0.013878
0.000494209
0.0140088
0.000597031
0.0140554
0.000505754
0.0140494
0.000386662
0.0139873
0.000324418
0.0139198
0.000201422
0.0138887
3.67241e-05
0.0138629
-3.51931e-05
0.0138508
-9.35969e-05
0.0138844
-0.000183854
0.0139474
-0.000243523
0.0140232
-0.000266185
0.0141094
-0.000276825
0.0142167
-0.000298695
0.0143411
-0.000319661
0.0144667
-0.000314283
0.0145911
-0.000302352
0.0147117
-0.000284805
0.0148431
-0.000291701
0.014969
-0.00027713
0.0150872
-0.000257728
0.0151962
-0.000235376
0.0152947
-0.000210298
0.0153937
-0.000203859
0.0154817
-0.000181688
0.015558
-0.000157438
0.0156216
-0.000131768
0.0156716
-0.000104667
0.0157114
-7.07626e-05
0.0157364
-4.15944e-06
0.0157507
3.27574e-05
0.0157606
3.52592e-05
0.0157725
1.5265e-06
-6.91711e-05
0.0158012
0.00901752
-0.00387881
-0.00798514
0.00994182
-0.0028633
0.0107833
-0.00172784
0.0115032
-0.000978327
0.0121447
-0.000481387
0.0127088
-0.000118876
0.0131699
3.31315e-05
0.0135517
0.000215306
0.0138438
0.000213595
0.0140662
0.000164295
0.014227
0.00016359
0.0143482
8.0279e-05
0.014458
-7.31112e-05
0.0145498
-0.000126928
0.0146337
-0.000177473
0.0147369
-0.00028708
0.0148525
-0.000359128
0.0149716
-0.000385257
0.0150946
-0.000399775
0.0152308
-0.000434934
0.0153772
-0.000466025
0.0155221
-0.000459198
0.0156645
-0.000444717
0.0158027
-0.000423041
0.0159473
-0.000436269
0.016085
-0.000414794
0.0162143
-0.000387104
0.0163347
-0.000355727
0.0164451
-0.000320731
0.0165528
-0.000311483
0.0166487
-0.000277644
0.0167325
-0.000241165
0.0168035
-0.000202758
0.0168611
-0.000162264
0.0169075
-0.000117162
0.0169393
-3.59531e-05
0.0169573
1.47186e-05
0.016966
2.65726e-05
0.0169668
7.21073e-07
-6.21397e-05
0.0169598
0.00820736
-0.0047647
-0.00732148
0.00906856
-0.0037245
0.00990645
-0.00256573
0.0106679
-0.00173973
0.0113595
-0.00117303
0.0119805
-0.000739838
0.0125192
-0.000505526
0.0130007
-0.000266211
0.0134122
-0.000197883
0.0137652
-0.000188704
0.0140662
-0.000137428
0.0143226
-0.00017613
0.0145503
-0.000300762
0.0147497
-0.000326384
0.0149271
-0.00035478
0.0151012
-0.000461182
0.0152722
-0.000530147
0.015437
-0.00055006
0.0155978
-0.000560562
0.0157633
-0.000600486
0.0159328
-0.000635473
0.0160981
-0.000624496
0.0162587
-0.000605357
0.0164139
-0.000578179
0.0165723
-0.00059468
0.0167232
-0.000565699
0.0168653
-0.000529157
0.0169978
-0.000488236
0.01712
-0.000442955
0.0172382
-0.00042965
0.0173445
-0.000383991
0.0174385
-0.000335074
0.0175194
-0.000283723
0.017587
-0.000229789
0.0176438
-0.000173966
0.0176876
-7.97512e-05
0.0177174
-1.51197e-05
0.017735
9.03628e-06
0.0177413
-5.59145e-06
-5.70838e-05
0.0177362
0.00777709
-0.0055829
-0.00695889
0.00859
-0.00453741
0.00940517
-0.00338088
0.0101773
-0.00251184
0.010905
-0.00190075
0.011579
-0.00141383
0.0121774
-0.00110395
0.0127282
-0.000816968
0.0132124
-0.000682058
0.0136403
-0.000616651
0.0140214
-0.000518443
0.0143568
-0.000511539
0.0146561
-0.000600124
0.014925
-0.000595193
0.0151674
-0.000597198
0.015396
-0.000689801
0.0156135
-0.000747626
0.0158192
-0.000755773
0.0160156
-0.000756961
0.0162102
-0.000795086
0.0164034
-0.0008287
0.0165898
-0.000810832
0.0167692
-0.000784756
0.0169413
-0.000750321
0.0171134
-0.000766786
0.0172769
-0.000729166
0.0174306
-0.000682865
0.017574
-0.000631643
0.0177066
-0.000575501
0.0178332
-0.000556282
0.0179475
-0.000498256
0.0180488
-0.00043639
0.0181368
-0.000371708
0.0182111
-0.000304098
0.018274
-0.000236848
0.0183237
-0.000129452
0.0183589
-5.03201e-05
0.01838
-1.20897e-05
0.0183871
-1.26881e-05
-4.96523e-05
0.0183797
0.00746377
-0.00635881
-0.00668787
0.00824314
-0.00531678
0.00903408
-0.00417182
0.00980234
-0.00328011
0.0105465
-0.00264487
0.0112557
-0.00212307
0.0119032
-0.00175149
0.0125136
-0.0014273
0.0130626
-0.00123109
0.0135579
-0.00111196
0.0140093
-0.00096984
0.014414
-0.000916216
0.0147773
-0.000963397
0.0151077
-0.000925638
0.0154084
-0.000897809
0.0156871
-0.00096854
0.0159483
-0.0010088
0.016193
-0.00100053
0.0164239
-0.000987799
0.0166471
-0.00101828
0.0168641
-0.00104568
0.0170714
-0.00101813
0.0172693
-0.000982701
0.017458
-0.000938961
0.0176435
-0.000952318
0.0178191
-0.000904753
0.0179839
-0.00084763
0.0181374
-0.000785157
0.0182792
-0.000717304
0.0184136
-0.000690663
0.018535
-0.000619649
0.0186428
-0.000544264
0.0187368
-0.000465711
0.0188167
-0.000383916
0.0188843
-0.000304513
0.0189383
-0.000183464
0.0189773
-8.92686e-05
0.0190012
-3.59628e-05
0.0190098
-2.13488e-05
-4.27463e-05
0.0190029
0.00724989
-0.00711279
-0.00649591
0.00800957
-0.00607646
0.00878267
-0.00494493
0.00954292
-0.00404035
0.0102907
-0.00339261
0.0110173
-0.00284969
0.0116961
-0.00243032
0.0123489
-0.00208012
0.0129488
-0.00183097
0.0135001
-0.00166329
0.0140121
-0.0014818
0.0144783
-0.00138239
0.0149001
-0.00138518
0.0152879
-0.00131349
0.0156437
-0.00125357
0.0159714
-0.0012962
0.0162763
-0.00131371
0.0165609
-0.00128515
0.0168276
-0.00125447
0.0170813
-0.001272
0.0173242
-0.00128856
0.0175545
-0.00124845
0.0177729
-0.00120108
0.0179797
-0.00114574
0.0181801
-0.00115275
0.018369
-0.00109365
0.0185457
-0.00102438
0.0187101
-0.000949463
0.0188616
-0.000868828
0.019004
-0.000833084
0.0191326
-0.00074826
0.019247
-0.000658599
0.0193467
-0.000565456
0.0194316
-0.000468787
0.0195033
-0.000376279
0.0195607
-0.000240816
0.0196023
-0.000130824
0.0196278
-6.15151e-05
0.0196371
-3.06349e-05
-3.54305e-05
0.0196298
0.00710108
-0.00785774
-0.00635614
0.00785199
-0.00682738
0.00861558
-0.00570851
0.0093708
-0.00479558
0.0101193
-0.0041411
0.0108549
-0.00358529
0.0115535
-0.00312893
0.012235
-0.00276157
0.0128724
-0.00246837
0.0134677
-0.00225867
0.0140293
-0.0020434
0.0145482
-0.00190125
0.0150223
-0.00185932
0.0154629
-0.00175407
0.0158706
-0.00166126
0.0162458
-0.00167141
0.0165944
-0.00166229
0.0169197
-0.00161039
0.0172236
-0.0015584
0.0175099
-0.00155826
0.017781
-0.00155966
0.0180367
-0.00150415
0.0182778
-0.00144219
0.0185049
-0.00137282
0.0187222
-0.0013701
0.0189262
-0.00129768
0.0191166
-0.00121471
0.019293
-0.00112594
0.0194554
-0.00103122
0.0196069
-0.000984558
0.0197436
-0.000884925
0.0198651
-0.000780059
0.019971
-0.000671435
0.0200613
-0.000559031
0.0201373
-0.000452344
0.0201981
-0.000301581
0.0202423
-0.000174981
0.0202695
-8.87802e-05
0.0202796
-4.07269e-05
-2.80695e-05
0.0202723
0.00700014
-0.00860268
-0.00625521
0.00775052
-0.00757775
0.00851196
-0.00646995
0.00926701
-0.00555063
0.0100179
-0.00489196
0.0107602
-0.00432763
0.0114731
-0.0038418
0.0121747
-0.00346316
0.0128399
-0.00313357
0.0134693
-0.00288815
0.0140705
-0.00264458
0.0146331
-0.0024638
0.0151525
-0.00237877
0.0156399
-0.0022415
0.016095
-0.00211629
0.0165151
-0.00209151
0.016906
-0.00205322
0.0172715
-0.00197587
0.0176131
-0.00190001
0.0179331
-0.00187824
0.0182341
-0.00186069
0.0185171
-0.00178715
0.018783
-0.00170805
0.0190324
-0.00162223
0.0192687
-0.00160643
0.0194898
-0.00151875
0.0196955
-0.00142038
0.0198857
-0.00131618
0.0200604
-0.00120593
0.0202222
-0.00114637
0.0203681
-0.00103077
0.0204976
-0.000909608
0.0206106
-0.000784461
0.0207069
-0.000655313
0.0207878
-0.000533252
0.0208524
-0.000366182
0.0208995
-0.000222067
0.0209288
-0.000118033
0.0209399
-5.18594e-05
-2.08406e-05
0.0209327
0.00693554
-0.00935414
-0.00618409
0.00769162
-0.00833383
0.00845699
-0.00723533
0.00921673
-0.00631036
0.00997315
-0.00564839
0.0107232
-0.00507765
0.0114487
-0.00456732
0.0121664
-0.00418089
0.0128537
-0.00382081
0.0135104
-0.00354491
0.0141435
-0.00327766
0.0147422
-0.00306247
0.0153004
-0.00293696
0.0158287
-0.00276979
0.0163259
-0.00261354
0.0167873
-0.0025529
0.0172182
-0.00248409
0.0176223
-0.00238003
0.0180009
-0.00227855
0.0183547
-0.00223211
0.0186865
-0.00219244
0.0189979
-0.00209857
0.0192899
-0.00200002
0.0195631
-0.00189549
0.0198201
-0.00186338
0.0200598
-0.00175849
0.0202824
-0.00164296
0.0204879
-0.00152166
0.0206763
-0.00139431
0.0208497
-0.00131981
0.0210059
-0.00118695
0.0211446
-0.00104828
0.0212656
-0.000905448
0.0213687
-0.000758432
0.0214551
-0.000619699
0.0215242
-0.000435224
0.0215747
-0.000272601
0.0216064
-0.000149728
0.021619
-6.44338e-05
-1.40817e-05
0.0216122
0.00689958
-0.0101171
-0.00613665
0.00766624
-0.00910049
0.00844049
-0.00800958
0.00920925
-0.00707913
0.00997475
-0.00641389
0.0107347
-0.00583756
0.0114733
-0.005306
0.012206
-0.0049136
0.0129125
-0.00452729
0.0135926
-0.00422495
0.0142524
-0.00393753
0.0148816
-0.00369168
0.0154733
-0.00352859
0.0160372
-0.00333376
0.0165719
-0.00314818
0.0170708
-0.0030518
0.0175387
-0.00295203
0.0179794
-0.00282067
0.0183933
-0.00269251
0.0187804
-0.00261915
0.0191428
-0.00255488
0.019483
-0.00243877
0.0198018
-0.00231877
0.0200998
-0.00219349
0.0203785
-0.00214211
0.0206381
-0.00201813
0.0208789
-0.00188368
0.0211008
-0.0017436
0.021304
-0.00159755
0.0214902
-0.00150602
0.0216578
-0.00135452
0.0218066
-0.00119704
0.0219364
-0.00103527
0.0220471
-0.000869171
0.0221398
-0.000712393
0.0222139
-0.000509328
0.0222685
-0.000327128
0.0223031
-0.000184339
0.0223175
-7.88588e-05
-8.13186e-06
0.0223116
0.00688692
-0.0108954
-0.00610856
0.0076681
-0.00988167
0.00845529
-0.00879678
0.00923685
-0.00786069
0.0100148
-0.00719182
0.0107872
-0.00661003
0.0115406
-0.00605931
0.0122886
-0.00566168
0.0130135
-0.00525213
0.0137148
-0.00492629
0.0143985
-0.00462119
0.0150545
-0.00434775
0.0156758
-0.00414985
0.0162714
-0.00392937
0.0168394
-0.0037162
0.0173724
-0.00358481
0.0178746
-0.00345419
0.0183493
-0.00329542
0.0187968
-0.00314001
0.0192159
-0.0030382
0.0196084
-0.00294743
0.0199772
-0.00280755
0.0203228
-0.00266441
0.0206459
-0.00251659
0.0209472
-0.00244331
0.0212275
-0.00229846
0.0214872
-0.0021434
0.0217265
-0.0019829
0.0219455
-0.00181653
0.0221454
-0.00170591
0.0223252
-0.00153436
0.0224849
-0.00135672
0.0226243
-0.00117468
0.0227434
-0.000988222
0.0228429
-0.000811969
0.0229227
-0.000589065
0.0229817
-0.000386151
0.0230197
-0.000222308
0.0230363
-9.55141e-05
-3.3017e-06
0.0230315
0.00689374
-0.0116925
-0.0060967
0.00769272
-0.0106806
0.00849628
-0.00960034
0.0092939
-0.00865831
0.0100873
-0.00798524
0.010875
-0.00739771
0.0116449
-0.00682919
0.0124096
-0.00642639
0.0131531
-0.00599563
0.0138751
-0.00564832
0.0145811
-0.00532719
0.0152619
-0.00502852
0.0159102
-0.00479819
0.0165346
-0.00455374
0.0171329
-0.00431453
0.0176973
-0.00414915
0.0182312
-0.0039881
0.0187378
-0.00380204
0.019217
-0.00361916
0.0196666
-0.00348788
0.0200884
-0.00336922
0.0204852
-0.00320433
0.0208575
-0.00303665
0.0212056
-0.00286478
0.0215296
-0.0027673
0.0218311
-0.00259993
0.0221104
-0.00242266
0.0223676
-0.00224015
0.022603
-0.0020519
0.0228173
-0.00192021
0.0230101
-0.00172716
0.0231813
-0.00152796
0.023331
-0.0013243
0.0234589
-0.00111615
0.0235659
-0.00091896
0.0236517
-0.000674917
0.0237157
-0.000450094
0.0237574
-0.000264006
0.0237766
-0.000114718
1.4626e-07
0.0237732
0.00691725
-0.012511
-0.00609875
0.00773684
-0.0115002
0.00855972
-0.0104232
0.00937627
-0.00947487
0.010188
-0.00879693
0.0109934
-0.00820319
0.0117819
-0.00761769
0.0125649
-0.00720936
0.013328
-0.00675874
0.014071
-0.00639133
0.014799
-0.00605515
0.0155034
-0.00573295
0.0161774
-0.00547216
0.0168286
-0.00520501
0.0174551
-0.00494103
0.0180487
-0.00474272
0.0186124
-0.00455177
0.019149
-0.00433868
0.0196581
-0.00412827
0.0201371
-0.00396688
0.0205872
-0.00381931
0.0210113
-0.00362842
0.0214097
-0.00343504
0.0217827
-0.00323779
0.0221295
-0.00311414
0.0224524
-0.00292275
0.0227515
-0.00272177
0.023027
-0.00251572
0.0232792
-0.00230409
0.0235084
-0.00214941
0.0237147
-0.00193344
0.023898
-0.00171127
0.0240583
-0.00148461
0.0241956
-0.00125342
0.0243104
-0.00103379
0.0244028
-0.000767274
0.024472
-0.000519302
0.0245177
-0.000309731
0.0245397
-0.000136721
2.01354e-06
0.0245379
0.00695537
-0.0133534
-0.00611295
0.00779808
-0.012343
0.00864288
-0.011268
0.00948092
-0.0103129
0.0103134
-0.00962941
0.0111391
-0.00902885
0.0119482
-0.00842687
0.0127513
-0.00801241
0.0135353
-0.00754275
0.0143001
-0.00715612
0.0150503
-0.00680536
0.0157782
-0.00646084
0.0164771
-0.0061711
0.0171542
-0.00588215
0.0178075
-0.00559433
0.0184289
-0.00536407
0.0190209
-0.00514377
0.0195861
-0.00490387
0.0201238
-0.00466595
0.0206309
-0.00447404
0.0211084
-0.0042968
0.0215591
-0.00407911
0.0219831
-0.00385902
0.0223806
-0.00363526
0.0227502
-0.00348373
0.0230943
-0.00326694
0.0234134
-0.00304085
0.0237075
-0.00280983
0.0239768
-0.00257335
0.0242213
-0.00239389
0.0244414
-0.00215356
0.0246371
-0.00190702
0.0248085
-0.00165597
0.0249554
-0.00140035
0.0250784
-0.00115681
0.0251776
-0.000866438
0.0252523
-0.000594036
0.0253023
-0.000359705
0.0253273
-0.000161702
2.16367e-06
0.0253272
0.00700654
-0.014222
-0.00613795
0.00787464
-0.0132111
0.00874372
-0.0121371
0.0096056
-0.0111748
0.0104612
-0.010485
0.0113093
-0.00987696
0.0121411
-0.00925873
0.0129661
-0.00883738
0.0137725
-0.00834917
0.0145602
-0.0079438
0.0153334
-0.00757859
0.0160851
-0.00721249
0.0168089
-0.00689495
0.0175115
-0.00658475
0.0181909
-0.00627372
0.0188392
-0.00601234
0.0194585
-0.00576311
0.0200512
-0.00549658
0.0206165
-0.00523117
0.0211509
-0.00500846
0.021655
-0.00480095
0.0221317
-0.00455575
0.0225807
-0.00430808
0.0230023
-0.0040568
0.0233945
-0.00387592
0.02376
-0.00363245
0.024099
-0.00337992
0.0244118
-0.00312257
0.0246983
-0.00285983
0.0249583
-0.00265389
0.0251925
-0.00238778
0.025401
-0.00211548
0.0255836
-0.00183864
0.0257405
-0.00155721
0.0258719
-0.00128824
0.0259781
-0.000972633
0.0260586
-0.000674484
0.0261129
-0.000414079
0.026141
-0.000189775
5.21975e-07
0.0261427
0.00706956
-0.0151189
-0.00617272
0.00796517
-0.0141067
0.00886072
-0.0130326
0.00974859
-0.0120627
0.0106294
-0.0113659
0.0115021
-0.0107496
0.0123586
-0.0101152
0.0132074
-0.00968615
0.0140378
-0.0091796
0.0148497
-0.00875569
0.015647
-0.00837586
0.0164231
-0.00798861
0.0171722
-0.00764407
0.0179004
-0.00731288
0.0186056
-0.006979
0.0192804
-0.00668711
0.0199266
-0.00640926
0.0205462
-0.00611616
0.0211382
-0.00582321
0.0216992
-0.00556948
0.0222295
-0.00533121
0.0227315
-0.00505783
0.0232053
-0.0047818
0.0236505
-0.00450207
0.0240651
-0.00429054
0.0244519
-0.00401919
0.0248109
-0.00373897
0.0251423
-0.00345397
0.0254461
-0.00316363
0.0257218
-0.00292957
0.0259704
-0.00263631
0.0261917
-0.00233684
0.0263859
-0.00203281
0.0265529
-0.00172417
0.0266929
-0.00142829
0.0268063
-0.00108602
0.0268926
-0.000760771
0.0269514
-0.000472945
0.0269827
-0.000220999
-2.93242e-06
0.0269861
0.00714352
-0.016046
-0.00621644
0.00806864
-0.0150318
0.00899274
-0.0139567
0.00990865
-0.0129786
0.0108168
-0.012274
0.0117161
-0.0116489
0.0125991
-0.0109982
0.0134735
-0.0105606
0.0143296
-0.0100357
0.0151671
-0.00959321
0.0159897
-0.00919841
0.0167912
-0.00879016
0.0175663
-0.00841914
0.0183204
-0.00806698
0.0190517
-0.00771035
0.019753
-0.00738839
0.0204258
-0.00708207
0.021072
-0.00676233
0.0216905
-0.00644169
0.0222777
-0.00615669
0.0228337
-0.0058872
0.0233609
-0.00558502
0.023859
-0.00527987
0.0243277
-0.0049708
0.0247646
-0.00472746
0.0251725
-0.00442708
0.0255515
-0.00411797
0.0259016
-0.00380405
0.0262227
-0.0034848
0.0265143
-0.00322108
0.0267772
-0.00289927
0.0270116
-0.00257124
0.0272174
-0.00223862
0.0273946
-0.00190137
0.0275434
-0.00157706
0.0276641
-0.0012067
0.0277563
-0.000852971
0.0278197
-0.000536345
0.0278541
-0.000255381
-8.17454e-06
0.0278593
0.00722773
-0.0170052
-0.0062685
0.0081843
-0.0159884
0.00913892
-0.0149114
0.0100848
-0.0139245
0.0110223
-0.0132115
0.0119502
-0.0125768
0.0128615
-0.0119096
0.0137634
-0.0114624
0.0146468
-0.0109191
0.0155115
-0.0104579
0.0163606
-0.0100476
0.0171887
-0.00961827
0.0179906
-0.00922105
0.0187714
-0.00884772
0.0195293
-0.00846823
0.0202573
-0.00811644
0.0209569
-0.00778167
0.0216297
-0.0074351
0.0222745
-0.00708652
0.0228878
-0.00676998
0.0234694
-0.00646879
0.0240215
-0.00613715
0.0245437
-0.00580212
0.0250358
-0.00546286
0.025495
-0.00518661
0.025924
-0.0048561
0.0263229
-0.00451692
0.0266917
-0.00417284
0.0270303
-0.00382337
0.0273377
-0.0035285
0.0276152
-0.00317677
0.0278628
-0.00281879
0.0280803
-0.00245618
0.0282678
-0.00208889
0.0284254
-0.00173465
0.0285534
-0.00133473
0.0286516
-0.000951118
0.0287195
-0.000604281
0.028757
-0.000292891
-1.51416e-05
0.028764
0.00732166
-0.0179985
-0.00632839
0.00831157
-0.0169783
0.00929864
-0.0158984
0.0102765
-0.0149023
0.0112452
-0.0141802
0.0122035
-0.0135351
0.0131451
-0.0128512
0.0140762
-0.0123935
0.0149886
-0.0118315
0.0158819
-0.0113512
0.0167591
-0.0109248
0.017615
-0.0104742
0.0184448
-0.0100508
0.0192531
-0.00965598
0.0200382
-0.00925336
0.0207936
-0.00887181
0.0215203
-0.00850843
0.0222199
-0.00813471
0.0228912
-0.00775783
0.0235306
-0.00740938
0.0241379
-0.00707599
0.0247149
-0.00671422
0.0252613
-0.00634852
0.0257767
-0.00597819
0.0262581
-0.00566802
0.0267083
-0.00530628
0.0271272
-0.00493586
0.0275147
-0.00456038
0.0278708
-0.00417941
0.0281942
-0.00385195
0.0284864
-0.00346892
0.0287472
-0.00307959
0.0289765
-0.00268555
0.0291744
-0.00228679
0.0293409
-0.00190111
0.0294763
-0.00147016
0.0295804
-0.00105522
0.0296529
-0.00067673
0.0296935
-0.000333473
-2.37431e-05
0.0297021
0.00742492
-0.0190276
-0.00639575
0.00845003
-0.0180034
0.00947146
-0.0169199
0.0104831
-0.015914
0.0114849
-0.015182
0.0124755
-0.0145257
0.0134491
-0.0138248
0.0144113
-0.0133557
0.0153543
-0.0127745
0.0162779
-0.0122748
0.0171846
-0.0118315
0.0180697
-0.0113593
0.0189286
-0.0109097
0.0197654
-0.0104928
0.0205786
-0.0100666
0.021362
-0.0096552
0.0221165
-0.00926295
0.0228434
-0.00886161
0.0235416
-0.00845596
0.0242074
-0.00807518
0.0248404
-0.00770903
0.0254426
-0.00731638
0.0260132
-0.0069192
0.0265519
-0.0065169
0.0270557
-0.0061718
0.0275272
-0.00577772
0.0279662
-0.00537488
0.0283726
-0.00496678
0.0287462
-0.00455302
0.0290858
-0.00419154
0.0293927
-0.00377582
0.0296668
-0.00335373
0.0299081
-0.00292683
0.0301164
-0.00249514
0.0302918
-0.0020765
0.0304347
-0.00161301
0.0305447
-0.00116527
0.0306216
-0.000753648
0.0306652
-0.000377048
-3.38667e-05
0.0306753
0.0075372
-0.0200946
-0.00647028
0.0085994
-0.0190656
0.00965708
-0.0179775
0.0107044
-0.0169614
0.0117412
-0.0162187
0.012766
-0.0155506
0.0137734
-0.0148322
0.0147684
-0.0143507
0.0157438
-0.01375
0.0166992
-0.0132302
0.017637
-0.0127693
0.0185527
-0.0122749
0.0194418
-0.0117989
0.0203084
-0.0113593
0.0211508
-0.010909
0.0219631
-0.0104675
0.0227461
-0.0100459
0.0235009
-0.00961643
0.0242263
-0.00918141
0.0249189
-0.00876779
0.0255782
-0.00836825
0.0262057
-0.00794392
0.0268009
-0.0075144
0.0273632
-0.00707919
0.0278895
-0.00669815
0.0283824
-0.0062706
0.0288417
-0.00583415
0.0292671
-0.00539217
0.0296584
-0.00494432
0.0300143
-0.00454741
0.030336
-0.0040976
0.0306236
-0.00364131
0.0308769
-0.0031801
0.0310957
-0.00271401
0.0312801
-0.00226085
0.0314304
-0.0017633
0.0315464
-0.00128124
0.0316277
-0.00083498
0.0316742
-0.000423525
-4.53839e-05
0.0316857
0.00765833
-0.0212011
-0.00655176
0.00875949
-0.0201667
0.00985531
-0.0190734
0.0109402
-0.0180463
0.0120138
-0.0172922
0.0130747
-0.0166115
0.0141177
-0.0158751
0.0151473
-0.0153803
0.0161568
-0.0147595
0.0171457
-0.0142191
0.0181162
-0.0137398
0.0190639
-0.0132226
0.0199847
-0.0127197
0.0208822
-0.0122568
0.0217549
-0.0117817
0.0225971
-0.0113097
0.0234094
-0.0108583
0.0241929
-0.0103999
0.0249464
-0.00993486
0.0256663
-0.00948779
0.0263523
-0.00905415
0.0270056
-0.00859727
0.0276257
-0.00813447
0.0282118
-0.00766536
0.0287611
-0.00724736
0.0292756
-0.00678518
0.0297554
-0.00631391
0.0302
-0.00583677
0.0306092
-0.0053535
0.0309815
-0.00491975
0.0313183
-0.00443441
0.0316195
-0.00394247
0.0318848
-0.00344545
0.0321143
-0.00294344
0.0323076
-0.00245422
0.0324654
-0.00192104
0.0325872
-0.00140311
0.0326729
-0.000920663
0.0327222
-0.000472803
-5.8154e-05
0.032735
0.00778818
-0.0223493
-0.00664006
0.00893021
-0.0213088
0.0100661
-0.0202092
0.0111905
-0.0191707
0.0123028
-0.0184045
0.0134016
-0.0177103
0.014482
-0.0169555
0.015548
-0.0164463
0.0165933
-0.0158048
0.0176174
-0.0152432
0.0186221
-0.0147445
0.0196034
-0.0142039
0.0205574
-0.0136737
0.0214871
-0.0131866
0.0223913
-0.0126858
0.0232645
-0.0121829
0.0241072
-0.011701
0.0249203
-0.011213
0.0257025
-0.0107171
0.0264506
-0.0102359
0.0271638
-0.00976735
0.0278435
-0.00927697
0.0284889
-0.00877989
0.0290994
-0.00827583
0.0296718
-0.00781982
0.0302084
-0.00732181
0.030709
-0.00681445
0.031173
-0.00630084
0.0316003
-0.00578079
0.0319894
-0.00530877
0.0323414
-0.00478645
0.0326563
-0.00425735
0.0329338
-0.00372301
0.0331739
-0.00318355
0.0333764
-0.00265665
0.0335416
-0.00208624
0.0336693
-0.00153087
0.0337593
-0.00101063
0.0338113
-0.000524773
-7.2028e-05
0.0338252
0.00792668
-0.0235409
-0.00673507
0.00911152
-0.0224936
0.0102894
-0.0213871
0.0114552
-0.0203365
0.0126081
-0.0195574
0.0137467
-0.018849
0.0148664
-0.0180752
0.0159706
-0.0175505
0.0170536
-0.0168878
0.0181145
-0.0163042
0.0191552
-0.0157851
0.0201716
-0.0152203
0.0211601
-0.0146622
0.0221236
-0.0141501
0.0230606
-0.0136228
0.0239659
-0.0130882
0.0248401
-0.0125752
0.0256837
-0.0120566
0.0264957
-0.011529
0.0272726
-0.0110128
0.0280138
-0.0105086
0.0287205
-0.00998366
0.0293919
-0.00945124
0.0300272
-0.00891112
0.0306233
-0.00841599
0.0311824
-0.0078809
0.0317041
-0.00733614
0.032188
-0.00678471
0.0326337
-0.00622647
0.0330396
-0.00571473
0.0334071
-0.00515393
0.0337359
-0.00458614
0.0340258
-0.00401292
0.0342767
-0.00343441
0.0344883
-0.00286823
0.034661
-0.00225895
0.0347946
-0.00166448
0.0348888
-0.00110483
0.0349433
-0.000579327
-8.68524e-05
0.0349581
0.00807383
-0.024778
-0.00683674
0.00930345
-0.0237232
0.0105253
-0.022609
0.0117344
-0.0215456
0.0129299
-0.0207529
0.0141103
-0.0200294
0.0152711
-0.0192359
0.0164155
-0.0186949
0.0175378
-0.0180101
0.0186374
-0.0174038
0.0197157
-0.0168634
0.0207689
-0.0162736
0.0217935
-0.0156869
0.0227921
-0.0151487
0.0237633
-0.0145939
0.0247021
-0.0140271
0.0256089
-0.013482
0.0264842
-0.0129319
0.0273268
-0.0123716
0.0281335
-0.0118195
0.0289036
-0.0112786
0.029638
-0.0107181
0.030336
-0.0101492
0.0309967
-0.00957183
0.0316171
-0.00903642
0.0321992
-0.00846294
0.0327425
-0.00787943
0.0332465
-0.00728877
0.0337109
-0.0066909
0.0341341
-0.00613794
0.0345173
-0.00553711
0.0348602
-0.00492906
0.0351627
-0.00431535
0.0354244
-0.00369617
0.0356452
-0.00308902
0.0358255
-0.00243918
0.0359649
-0.00180395
0.0360633
-0.00120318
0.0361203
-0.000636357
-0.000102472
0.0361359
0.00822966
-0.0260626
-0.00694507
0.0095061
-0.0249997
0.010774
-0.0238768
0.0120285
-0.0228001
0.0132685
-0.021993
0.0144926
-0.0212535
0.0156964
-0.0204398
0.0168828
-0.0198812
0.0180464
-0.0191737
0.0191864
-0.0185438
0.020304
-0.017981
0.0213957
-0.0173652
0.0224581
-0.0167492
0.0234933
-0.0161839
0.0245001
-0.0156007
0.0254738
-0.0150008
0.0264145
-0.0144227
0.0273226
-0.0138401
0.028197
-0.013246
0.0290345
-0.0126571
0.0298343
-0.0120784
0.0305973
-0.0114811
0.0313226
-0.0108745
0.0320095
-0.0102586
0.0326548
-0.00968174
0.0332603
-0.0090685
0.0338257
-0.00844481
0.0343504
-0.00781346
0.034834
-0.00717445
0.0352748
-0.00657876
0.035674
-0.00593629
0.0360312
-0.00528635
0.0363464
-0.00463049
0.0366192
-0.00396896
0.0368493
-0.00331913
0.0370371
-0.00262701
0.0371824
-0.00194926
0.0372849
-0.00130565
0.0373443
-0.00069576
-0.000118732
0.0373606
0.00839427
-0.0273968
-0.00706007
0.0097196
-0.026325
0.0110355
-0.0251928
0.0123375
-0.024102
0.0136241
-0.0232796
0.0148939
-0.0225233
0.0161428
-0.0216886
0.0173731
-0.0211115
0.0185798
-0.0203805
0.0197621
-0.0197261
0.0209209
-0.0191398
0.0220528
-0.0184971
0.0231545
-0.0178509
0.024228
-0.0172575
0.025272
-0.0166447
0.0262819
-0.0160107
0.0272578
-0.0153986
0.0282
-0.0147823
0.0291073
-0.0141533
0.0299767
-0.0135265
0.0308073
-0.012909
0.0315998
-0.0122736
0.0323533
-0.011628
0.033067
-0.0109723
0.0337379
-0.0103526
0.0343676
-0.0096982
0.0349556
-0.00903285
0.0355014
-0.00835929
0.0360046
-0.00767758
0.0364634
-0.00703756
0.0368789
-0.00635181
0.0372508
-0.0056583
0.0375789
-0.00495858
0.0378629
-0.00425295
0.0381025
-0.00355869
0.038298
-0.00282249
0.0384491
-0.00210044
0.0385557
-0.00141219
0.0386173
-0.000757434
-0.000135475
0.0386341
0.00856776
-0.0287827
-0.0071818
0.00994414
-0.0277014
0.0113103
-0.026559
0.0126617
-0.0254534
0.0139971
-0.0246149
0.0153147
-0.0238409
0.0166106
-0.0229845
0.0178868
-0.0223878
0.0191387
-0.0216323
0.0203651
-0.0209525
0.0215669
-0.0203416
0.0227408
-0.019671
0.0238836
-0.0189937
0.024997
-0.0183709
0.0260797
-0.0177273
0.0271273
-0.0170583
0.0281399
-0.0164111
0.0291175
-0.0157599
0.030059
-0.0150947
0.0309614
-0.0144289
0.0318238
-0.0137713
0.0326468
-0.0130966
0.0334294
-0.0124107
0.0341708
-0.0117137
0.0348681
-0.0110499
0.0355226
-0.0103527
0.0361339
-0.00964419
0.0367015
-0.00892682
0.0372247
-0.00820078
0.0377019
-0.0075148
0.0381341
-0.00678405
0.0385211
-0.00604521
0.0388623
-0.00529987
0.0391577
-0.00454835
0.0394069
-0.00380782
0.0396101
-0.0030257
0.0397672
-0.00225751
0.0398777
-0.00152275
0.0399416
-0.000821283
-0.000152547
0.0399587
0.00875031
-0.0302227
-0.00731035
0.0101799
-0.029131
0.0115985
-0.0279776
0.0130016
-0.0268566
0.0143878
-0.0260011
0.0157553
-0.0252085
0.0171004
-0.0243296
0.0184246
-0.0237121
0.0197236
-0.0229313
0.0209961
-0.0222251
0.0222428
-0.0215883
0.0234606
-0.0208888
0.0246462
-0.0201794
0.0258013
-0.019526
0.0269243
-0.0188504
0.0280113
-0.0181453
0.0290619
-0.0174618
0.0300764
-0.0167744
0.0310534
-0.0160717
0.0319901
-0.0153656
0.0328854
-0.0146667
0.0337399
-0.0139511
0.0345526
-0.0132234
0.0353226
-0.0124837
0.0360471
-0.0117743
0.0367272
-0.0110329
0.0373625
-0.0102795
0.0379524
-0.00951667
0.0384962
-0.00874459
0.0389923
-0.00801095
0.0394417
-0.00723343
0.039844
-0.00644746
0.0401987
-0.00565464
0.0405058
-0.00485538
0.0407646
-0.00406671
0.0409757
-0.00323676
0.0411387
-0.0024205
0.0412533
-0.00163733
0.0413192
-0.000887218
-0.000169792
0.0413364
0.00894208
-0.0317189
-0.00744584
0.0104272
-0.0306162
0.0119005
-0.0294508
0.0133576
-0.0283136
0.0147968
-0.0274403
0.0162164
-0.0266281
0.0176127
-0.0257259
0.0189871
-0.0250865
0.0203352
-0.0242794
0.0216559
-0.0235457
0.0229495
-0.0228819
0.024213
-0.0221523
0.0254433
-0.0214097
0.0266418
-0.0207244
0.0278069
-0.0200155
0.0289348
-0.0192732
0.0300251
-0.0185521
0.0310779
-0.0178272
0.0320918
-0.0170856
0.033064
-0.0163378
0.0339935
-0.0155962
0.0348807
-0.0148383
0.0357246
-0.0140673
0.0365242
-0.0132833
0.0372767
-0.0125268
0.0379833
-0.0117395
0.0386433
-0.0109395
0.0392561
-0.0101295
0.0398211
-0.00930962
0.0403367
-0.00852655
0.0408037
-0.0077004
0.0412217
-0.00686541
0.0415903
-0.00602323
0.0419092
-0.0051743
0.042178
-0.00433553
0.042397
-0.00345578
0.042566
-0.00258947
0.0426845
-0.00175588
0.0427525
-0.00095515
-0.000187058
0.0427697
0.0091433
-0.0332738
-0.00758839
0.0106864
-0.0321592
0.0122167
-0.0309812
0.01373
-0.0298269
0.0152246
-0.0289349
0.0166986
-0.0281021
0.0181483
-0.0271757
0.019575
-0.0265132
0.0209744
-0.0256788
0.0223453
-0.0249166
0.0236878
-0.0242244
0.024999
-0.0234635
0.0262759
-0.0226866
0.0275196
-0.0219681
0.0287287
-0.0212246
0.0298992
-0.0204437
0.0310308
-0.0196837
0.0321234
-0.0189198
0.0331756
-0.0181378
0.0341848
-0.017347
0.0351498
-0.0165612
0.0360709
-0.0157594
0.0369471
-0.0149434
0.0377773
-0.0141135
0.0385588
-0.0133083
0.0392927
-0.0124733
0.0399782
-0.0116251
0.0406148
-0.010766
0.0412016
-0.00989651
0.0417373
-0.00906216
0.0422223
-0.00818546
0.0426564
-0.00729951
0.0430392
-0.00640597
0.0433702
-0.00550537
0.0436492
-0.00461449
0.0438763
-0.00368288
0.0440513
-0.00276447
0.0441739
-0.00187842
0.0442437
-0.001025
-0.000204187
0.0442608
0.00935423
-0.0348899
-0.00773819
0.0109576
-0.0337626
0.0125474
-0.0325709
0.0141194
-0.0313989
0.0156716
-0.0304871
0.0172023
-0.0296328
0.0187079
-0.0286812
0.0201892
-0.0279944
0.021642
-0.0271317
0.0230653
-0.0263398
0.0244588
-0.0256179
0.0258198
-0.0248244
0.0271453
-0.0240121
0.0284361
-0.023259
0.0296909
-0.0224793
0.0309058
-0.0216586
0.0320804
-0.0208584
0.0332144
-0.0200538
0.0343066
-0.01923
0.0353541
-0.0183946
0.036356
-0.017563
0.0373122
-0.0167157
0.0382219
-0.015853
0.0390838
-0.0149754
0.0398954
-0.0141199
0.0406575
-0.0132354
0.0413694
-0.012337
0.0420304
-0.011427
0.0426398
-0.010506
0.0431961
-0.00961841
0.0436998
-0.00868915
0.0441505
-0.00775021
0.0445478
-0.00680327
0.0448913
-0.00584891
0.0451807
-0.00490383
0.045416
-0.00391824
0.0455971
-0.00294559
0.0457237