/*--------------------------------*- C++ -*----------------------------------*\
| =========                 |                                                 |
| \\      /  F ield         | OpenFOAM: The Open Source CFD Toolbox           |
|  \\    /   O peration     | Version:  3.0.1                                 |
|   \\  /    A nd           | Web:      www.OpenFOAM.org                      |
|    \\/     M anipulation  |                                                 |
\*---------------------------------------------------------------------------*/
FoamFile
{
    version     2.0;
    format      ascii;
    class       volVectorField;
    location    "500";
    object      U;
}
// * * * * * * * * * * * * * * * * * * * * * * * * * * * * * * * * * * * * * //

dimensions      [0 1 -1 0 0 0 0];

internalField   nonuniform List<vector> 
58000
(
(0.296977 1.21499 2.72275e-21)
(0.447184 1.33658 -2.00896e-20)
(0.599545 1.36959 2.12121e-20)
(0.72813 1.3188 -3.18274e-20)
(0.828739 1.22521 -6.38455e-20)
(0.907092 1.11351 0)
(0.968329 1.00281 -3.5624e-20)
(1.01404 0.896349 -4.66076e-22)
(1.0506 0.799083 4.06255e-20)
(1.07975 0.716553 0)
(1.10308 0.645453 4.3828e-20)
(1.1229 0.584678 4.17434e-20)
(1.14127 0.536121 -1.32343e-19)
(1.15476 0.496262 4.6048e-20)
(1.16449 0.462413 4.13051e-20)
(1.17202 0.434248 8.22743e-20)
(1.17735 0.410821 -1.20804e-19)
(1.18109 0.390408 0)
(1.18366 0.371657 7.58841e-20)
(1.18537 0.35415 -1.12327e-19)
(1.18628 0.338137 9.99848e-22)
(1.1863 0.32319 3.64195e-20)
(1.18587 0.308798 1.72475e-20)
(1.18451 0.294415 0)
(1.18295 0.280637 3.26084e-20)
(1.18051 0.267628 -1.60728e-20)
(1.17769 0.255053 0)
(1.17458 0.242738 2.89428e-22)
(1.17075 0.230421 0)
(1.16685 0.218613 -1.4838e-20)
(1.16236 0.207442 7.23899e-20)
(1.15767 0.196598 -7.18743e-20)
(1.15279 0.185959 -4.21677e-20)
(1.1475 0.175393 1.10706e-19)
(1.14195 0.165051 -2.74613e-20)
(1.13388 0.154808 -1.34656e-20)
(1.12239 0.145012 2.00754e-20)
(1.11066 0.136409 -1.28937e-20)
(1.10025 0.129051 1.92454e-20)
(1.09901 0.124252 0)
(0.552706 0.800379 -7.02833e-21)
(0.671162 0.87591 0)
(0.790505 0.933496 3.94937e-23)
(0.905594 0.986173 -3.9947e-23)
(1.01133 1.01774 3.88672e-20)
(1.10627 1.02452 3.16247e-20)
(1.18655 1.01074 -5.97651e-20)
(1.2537 0.980349 1.70444e-20)
(1.30787 0.936988 8.00372e-20)
(1.34812 0.887518 -4.36802e-20)
(1.37739 0.833708 0)
(1.39685 0.778032 -7.83473e-20)
(1.40726 0.725673 5.24592e-20)
(1.41215 0.677244 2.79711e-20)
(1.41303 0.631065 -2.78978e-20)
(1.41124 0.589133 0)
(1.40787 0.552179 2.7406e-20)
(1.40348 0.518461 0)
(1.3984 0.486952 1.04125e-19)
(1.39305 0.458069 -1.55778e-19)
(1.38775 0.432239 0)
(1.38237 0.408411 1.25374e-19)
(1.37687 0.385735 -9.96612e-20)
(1.37112 0.363927 0)
(1.36551 0.343816 -3.57486e-20)
(1.35993 0.325331 0)
(1.35418 0.30757 0)
(1.34826 0.290353 3.41418e-20)
(1.34204 0.27357 0)
(1.33586 0.257849 -3.31345e-20)
(1.32968 0.243174 4.38693e-20)
(1.32332 0.228922 -4.27106e-20)
(1.31676 0.214973 3.18516e-20)
(1.30992 0.201276 -2.09885e-20)
(1.30284 0.188063 0)
(1.29555 0.175513 -3.06714e-20)
(1.28803 0.164065 2.02225e-20)
(1.28059 0.154013 0)
(1.27377 0.144858 -4.96649e-21)
(1.26841 0.136987 9.72686e-21)
(0.565546 0.727151 1.56967e-21)
(0.622657 0.78915 -4.53704e-22)
(0.692558 0.84042 1.98164e-21)
(0.770732 0.879376 1.17323e-21)
(0.852456 0.905869 -1.2209e-21)
(0.936084 0.920927 -1.77328e-20)
(1.01512 0.92392 2.2044e-20)
(1.09026 0.915048 0)
(1.15841 0.895531 -2.93957e-20)
(1.21604 0.867473 2.68778e-20)
(1.26547 0.832212 3.29397e-20)
(1.30621 0.792049 -1.80002e-21)
(1.3369 0.750672 0)
(1.36008 0.709 7.32591e-20)
(1.37761 0.667169 -3.82218e-20)
(1.38965 0.627682 0)
(1.39729 0.591553 0)
(1.4019 0.557737 0)
(1.40425 0.52575 -1.8834e-20)
(1.40481 0.496207 1.99409e-20)
(1.40406 0.46945 0)
(1.40237 0.444555 1.8509e-20)
(1.39994 0.420869 0)
(1.39688 0.398232 0)
(1.39341 0.377332 3.68427e-20)
(1.38962 0.357941 -7.23742e-20)
(1.38545 0.33928 7.24146e-20)
(1.38096 0.321273 1.72689e-20)
(1.37613 0.303852 -3.53675e-20)
(1.37116 0.287518 -2.58489e-20)
(1.36604 0.27214 0)
(1.36066 0.257196 1.6601e-20)
(1.35503 0.242653 0)
(1.34914 0.228498 3.06395e-22)
(1.34305 0.214942 -2.43254e-20)
(1.3367 0.20203 1.63503e-20)
(1.33003 0.189734 0)
(1.32331 0.178157 0)
(1.31681 0.167102 -3.90061e-21)
(1.31101 0.156234 -4.10032e-21)
(0.641883 0.65237 3.02304e-21)
(0.681283 0.698513 6.43003e-22)
(0.726289 0.741359 -1.54901e-21)
(0.77756 0.778192 -1.15897e-23)
(0.833949 0.806448 4.24035e-21)
(0.894691 0.8258 0)
(0.955872 0.835538 -9.46029e-21)
(1.0168 0.836449 0)
(1.07588 0.828971 -1.74327e-20)
(1.12962 0.814035 -3.34891e-21)
(1.17892 0.792502 -2.2083e-20)
(1.22288 0.765577 2.11409e-20)
(1.25929 0.735625 -2.67571e-20)
(1.28938 0.703502 -5.41062e-20)
(1.31452 0.669536 -2.84307e-20)
(1.33411 0.635808 2.93706e-20)
(1.34872 0.603472 -2.76378e-20)
(1.35975 0.572122 0)
(1.368 0.541679 -1.3098e-20)
(1.37374 0.512932 -5.90494e-20)
(1.37738 0.486375 5.92483e-20)
(1.3795 0.461341 -1.51749e-20)
(1.38047 0.437332 0)
(1.38046 0.414271 0)
(1.37959 0.392834 4.28336e-20)
(1.37806 0.37284 -5.76649e-20)
(1.37594 0.353578 5.66856e-20)
(1.37332 0.334971 -6.03363e-22)
(1.37022 0.316958 -1.11861e-19)
(1.36677 0.300016 6.99323e-20)
(1.36303 0.284037 -2.72337e-20)
(1.35895 0.268526 -1.3573e-20)
(1.35454 0.253451 5.38308e-20)
(1.3498 0.238794 -1.99879e-20)
(1.34483 0.224766 6.74727e-21)
(1.33965 0.211412 -6.41342e-21)
(1.33425 0.198574 -6.35666e-21)
(1.32869 0.186238 0)
(1.3231 0.174342 3.15337e-21)
(1.31777 0.162891 -3.28345e-21)
(0.683438 0.605001 -1.31295e-21)
(0.711933 0.6416 -1.67496e-21)
(0.744509 0.677327 -2.08226e-22)
(0.782058 0.71035 -7.48399e-22)
(0.824562 0.73824 -1.2626e-21)
(0.87191 0.760088 0)
(0.921456 0.774272 3.95406e-21)
(0.972542 0.781047 3.71483e-21)
(1.02379 0.780621 0)
(1.07224 0.773233 1.12792e-20)
(1.11842 0.759648 1.31041e-20)
(1.16137 0.740736 0)
(1.19874 0.718046 -1.91318e-20)
(1.23119 0.692366 2.03332e-20)
(1.25972 0.664155 0)
(1.28332 0.635107 -4.00851e-20)
(1.30212 0.606314 1.09244e-19)
(1.31734 0.577677 4.71716e-22)
(1.32965 0.549291 -2.14221e-20)
(1.33914 0.521987 0)
(1.3461 0.496339 0)
(1.35118 0.471876 0)
(1.35483 0.448234 2.2467e-20)
(1.35724 0.425403 0)
(1.35848 0.404048 0)
(1.35877 0.384022 0)
(1.35832 0.364685 3.44001e-20)
(1.35721 0.34598 -4.57656e-20)
(1.35551 0.327866 5.59898e-20)
(1.35331 0.310793 -3.41745e-20)
(1.35067 0.294651 0)
(1.34762 0.278979 0)
(1.34418 0.263752 -1.1093e-20)
(1.34038 0.248959 3.28813e-20)
(1.33628 0.234795 -2.57079e-22)
(1.33195 0.22129 -2.67524e-20)
(1.32739 0.208235 1.61417e-20)
(1.32259 0.195578 0)
(1.31762 0.183314 0)
(1.31257 0.171494 -5.29165e-21)
(0.720516 0.567603 0)
(0.742639 0.597103 1.24012e-21)
(0.767222 0.626646 9.52104e-22)
(0.7954 0.655174 8.34703e-22)
(0.827753 0.680873 -1.61734e-21)
(0.864706 0.702924 3.13294e-21)
(0.904694 0.719392 2.22275e-21)
(0.947182 0.730138 8.19853e-21)
(0.991165 0.734889 1.24809e-21)
(1.03411 0.733338 -1.69868e-20)
(1.07625 0.726103 -5.12115e-22)
(1.11665 0.713723 -3.40924e-20)
(1.15305 0.697154 5.01495e-20)
(1.18573 0.677128 -2.65504e-20)
(1.21541 0.65414 3.01244e-20)
(1.24093 0.629532 -2.88997e-20)
(1.2621 0.604297 0)
(1.27994 0.578536 0)
(1.29499 0.552454 0)
(1.30716 0.52687 0)
(1.31661 0.50241 -1.88327e-20)
(1.32401 0.478775 -1.77221e-20)
(1.3298 0.455719 5.47149e-20)
(1.33417 0.433287 -3.70478e-20)
(1.33715 0.412141 0)
(1.33897 0.392182 1.80277e-20)
(1.33992 0.372851 -2.74324e-20)
(1.34009 0.354106 3.72001e-20)
(1.33956 0.335921 -6.4139e-20)
(1.33839 0.318728 1.85206e-20)
(1.33668 0.302432 -3.63041e-20)
(1.33448 0.286601 3.64996e-20)
(1.33184 0.271216 -4.24133e-22)
(1.32878 0.256262 9.18805e-21)
(1.32537 0.241924 0)
(1.32169 0.228227 0)
(1.31773 0.214961 -8.75757e-21)
(1.31349 0.202063 8.8057e-21)
(1.309 0.189556 0)
(1.30433 0.177519 -4.2073e-21)
(0.749272 0.537817 7.36244e-22)
(0.767462 0.562226 -8.34921e-22)
(0.787268 0.586941 -1.35946e-22)
(0.809615 0.611334 -8.20032e-23)
(0.835197 0.634138 -1.65205e-21)
(0.864657 0.654829 -3.16081e-21)
(0.89718 0.671623 -2.8872e-21)
(0.932493 0.684251 -9.73807e-22)
(0.969982 0.692192 0)
(1.0076 0.694733 0)
(1.04544 0.692305 6.2724e-21)
(1.08267 0.685146 0)
(1.11719 0.673702 0)
(1.14903 0.658601 -2.08645e-20)
(1.17871 0.640331 1.09664e-20)
(1.20498 0.6199 -2.2774e-20)
(1.22745 0.598177 1.27071e-20)
(1.24694 0.575396 0)
(1.26386 0.551824 1.3032e-20)
(1.27798 0.528232 1.48308e-20)
(1.28936 0.505261 -2.97741e-20)
(1.2986 0.482757 4.45433e-20)
(1.30615 0.460575 1.17799e-22)
(1.31217 0.438809 -2.99093e-20)
(1.31663 0.41811 1.55559e-20)
(1.31978 0.398433 -3.03898e-20)
(1.32194 0.379297 -3.04425e-20)
(1.32323 0.36068 -1.48197e-20)
(1.32371 0.342574 1.5615e-20)
(1.32345 0.325397 -3.72752e-20)
(1.32255 0.309069 6.04298e-20)
(1.3211 0.29319 -2.69583e-22)
(1.31915 0.277745 -6.02073e-20)
(1.31673 0.262723 7.72354e-21)
(1.31391 0.248298 0)
(1.31075 0.234496 2.19689e-20)
(1.30728 0.221112 -7.61704e-21)
(1.30348 0.208082 0)
(1.29938 0.19544 3.6131e-21)
(1.29501 0.18327 3.92528e-21)
(0.773092 0.513109 -8.23898e-22)
(0.788542 0.533705 2.06799e-22)
(0.805104 0.554666 1.85484e-22)
(0.823523 0.575591 2.28627e-24)
(0.84444 0.595572 1.9382e-22)
(0.868511 0.614326 2.85336e-21)
(0.895344 0.630355 -1.46713e-21)
(0.924858 0.643421 2.69898e-21)
(0.956756 0.65295 -2.81689e-21)
(0.989464 0.65804 0)
(1.02304 0.658968 3.63044e-21)
(1.05681 0.655748 -1.23723e-20)
(1.0889 0.648427 6.49932e-21)
(1.11918 0.637496 -2.2794e-20)
(1.14804 0.623389 2.6577e-20)
(1.17421 0.606801 -2.66136e-20)
(1.19718 0.588457 2.93232e-20)
(1.21758 0.568665 0)
(1.23568 0.547715 -1.1338e-20)
(1.25119 0.526302 1.17454e-20)
(1.26402 0.505048 -1.20662e-20)
(1.27473 0.483919 2.37462e-20)
(1.28372 0.462854 -4.82325e-20)
(1.29112 0.441987 2.43643e-20)
(1.29688 0.421946 1.28372e-20)
(1.3012 0.402737 1.28826e-20)
(1.30446 0.383962 -2.50867e-20)
(1.30675 0.365621 5.05772e-20)
(1.30817 0.347722 0)
(1.30874 0.330671 3.8286e-20)
(1.30859 0.314406 -3.76375e-20)
(1.30783 0.298563 2.5143e-20)
(1.30651 0.283131 -1.88534e-20)
(1.30468 0.268104 6.4428e-21)
(1.30238 0.25365 6.11741e-21)
(1.2997 0.239796 -2.99487e-22)
(1.29667 0.226348 -6.37006e-21)
(1.29326 0.213246 0)
(1.28952 0.200531 -3.05536e-21)
(1.28545 0.188287 3.2099e-21)
(0.792962 0.4921 0)
(0.806438 0.509771 0)
(0.82072 0.527787 -1.35789e-21)
(0.836397 0.545878 3.12794e-22)
(0.854027 0.563365 2.8562e-22)
(0.8742 0.580117 -2.65897e-21)
(0.896746 0.594917 3.36959e-21)
(0.921697 0.607597 0)
(0.948968 0.617638 0)
(0.977376 0.624101 -6.47396e-21)
(1.00699 0.627172 -9.16198e-21)
(1.03731 0.626727 -7.1532e-25)
(1.06672 0.622535 1.62464e-20)
(1.09503 0.614956 -3.5093e-21)
(1.12251 0.604352 -1.06186e-20)
(1.14797 0.591146 0)
(1.1708 0.575907 0)
(1.19148 0.55897 0)
(1.21021 0.540618 0)
(1.22658 0.521451 -1.82496e-20)
(1.24044 0.502049 1.84802e-20)
(1.25226 0.482466 2.8646e-20)
(1.26239 0.462708 -3.95021e-20)
(1.27094 0.442934 1.02996e-20)
(1.27779 0.423739 0)
(1.28315 0.40518 -2.07262e-20)
(1.28738 0.386932 2.09057e-20)
(1.29059 0.369017 -1.08902e-20)
(1.29286 0.351464 0)
(1.29421 0.334662 -1.08862e-20)
(1.29476 0.31857 1.10537e-20)
(1.29465 0.302861 4.26069e-20)
(1.29393 0.287532 -4.2642e-20)
(1.29264 0.272582 2.13643e-20)
(1.29085 0.258175 -5.45244e-21)
(1.28862 0.244339 -2.63331e-20)
(1.28599 0.230894 1.06261e-20)
(1.28296 0.217787 5.23901e-21)
(1.27955 0.205059 -7.87408e-21)
(1.27577 0.192792 2.72985e-21)
(0.809827 0.473888 0)
(0.821803 0.489255 0)
(0.834393 0.504925 8.16498e-22)
(0.848068 0.520703 -2.72807e-22)
(0.863301 0.536064 1.45401e-22)
(0.8806 0.550964 1.51465e-21)
(0.899904 0.564413 -2.5113e-21)
(0.921299 0.576316 -1.43833e-21)
(0.944822 0.586233 4.65269e-21)
(0.969587 0.593282 -4.89028e-21)
(0.995695 0.597595 -9.69101e-23)
(1.02278 0.598983 9.24958e-23)
(1.04951 0.597054 6.41147e-21)
(1.07566 0.592052 9.68496e-21)
(1.10144 0.584269 1.17617e-20)
(1.12576 0.573914 -1.7327e-22)
(1.14799 0.561408 -1.15263e-20)
(1.16848 0.547074 0)
(1.18735 0.531172 -1.32339e-20)
(1.20414 0.5142 1.39992e-20)
(1.21864 0.49668 -1.54673e-20)
(1.23123 0.478724 8.13784e-21)
(1.24221 0.460383 2.823e-22)
(1.25167 0.441833 8.90041e-21)
(1.25942 0.423626 -1.70054e-20)
(1.26565 0.405858 0)
(1.27073 0.388276 2.60973e-20)
(1.27475 0.37092 -4.41453e-20)
(1.27779 0.353835 3.57302e-20)
(1.27985 0.337394 -2.73245e-20)
(1.28104 0.321578 -1.80071e-20)
(1.28154 0.306099 1.81523e-20)
(1.28138 0.29096 1.80976e-20)
(1.28062 0.276167 -1.821e-20)
(1.2793 0.261878 9.03872e-21)
(1.2775 0.248128 2.00245e-22)
(1.27526 0.234751 0)
(1.27259 0.221698 0)
(1.26951 0.209013 4.38999e-21)
(1.26602 0.196771 0)
(0.824318 0.457857 6.86758e-22)
(0.835114 0.471372 1.10476e-22)
(0.846399 0.485141 -1.12116e-22)
(0.858556 0.499021 1.95117e-24)
(0.871982 0.512588 0)
(0.887108 0.525847 -5.88411e-22)
(0.903925 0.537989 7.67576e-22)
(0.92254 0.548966 -7.81423e-22)
(0.943052 0.558426 2.54728e-21)
(0.964792 0.565571 -3.06341e-21)
(0.987881 0.57051 4.61789e-21)
(1.01207 0.573035 0)
(1.03626 0.572672 -5.87408e-21)
(1.06024 0.569581 1.67886e-21)
(1.08419 0.563993 1.68253e-20)
(1.10713 0.555959 -1.80594e-20)
(1.12844 0.545772 2.97311e-20)
(1.14839 0.533726 -1.02463e-20)
(1.16702 0.520047 1.19013e-20)
(1.18387 0.505132 -1.25949e-20)
(1.19866 0.489435 0)
(1.21171 0.473104 1.36856e-20)
(1.22328 0.456218 1.30767e-20)
(1.23339 0.438956 0)
(1.24184 0.421825 0)
(1.24878 0.404949 1.41127e-20)
(1.25457 0.388137 7.19926e-21)
(1.25929 0.371443 -7.23765e-21)
(1.263 0.354928 1.47441e-20)
(1.26569 0.338945 2.28078e-20)
(1.26748 0.323497 -1.54187e-20)
(1.26853 0.308334 0)
(1.2689 0.293465 -1.55155e-20)
(1.26862 0.278903 1.56176e-20)
(1.26776 0.264803 7.77145e-21)
(1.26637 0.251204 -6.38026e-23)
(1.2645 0.237955 -7.83115e-21)
(1.26218 0.225013 0)
(1.25943 0.212423 -1.15564e-20)
(1.25621 0.200256 0)
(0.836903 0.443574 -8.13617e-22)
(0.846744 0.455572 8.04785e-22)
(0.85699 0.467778 4.98888e-22)
(0.867955 0.480084 -2.80398e-22)
(0.879975 0.492138 6.27873e-23)
(0.893417 0.50397 5.41411e-22)
(0.908291 0.51491 8.93961e-22)
(0.924711 0.524945 -1.36482e-21)
(0.942798 0.533793 -2.99588e-22)
(0.962041 0.540751 2.53916e-21)
(0.98257 0.545917 -6.86643e-21)
(1.00422 0.54909 -6.51012e-22)
(1.0261 0.549768 1.50599e-20)
(1.04802 0.548053 -1.06178e-20)
(1.07013 0.544129 -6.83947e-21)
(1.09159 0.537937 8.17525e-21)
(1.1118 0.529666 -1.61676e-20)
(1.13096 0.519576 -8.24287e-21)
(1.14908 0.507849 1.90475e-20)
(1.16571 0.494798 -1.93533e-20)
(1.18052 0.480805 0)
(1.19376 0.466034 0)
(1.20566 0.450579 -9.06876e-22)
(1.2162 0.434615 0)
(1.22516 0.418598 0)
(1.23265 0.402672 -1.28227e-20)
(1.23901 0.386696 -1.22172e-20)
(1.2443 0.370737 -1.2446e-20)
(1.24858 0.354867 1.21889e-20)
(1.25182 0.339419 -7.14832e-21)
(1.25413 0.324415 -3.60276e-22)
(1.25569 0.30964 1.33366e-20)
(1.25653 0.295109 0)
(1.25671 0.280845 1.99463e-20)
(1.25626 0.266995 -1.35226e-20)
(1.25525 0.253606 -1.33032e-20)
(1.25375 0.24054 6.7802e-21)
(1.25176 0.227762 -3.359e-21)
(1.24931 0.215316 1.02979e-20)
(1.24638 0.203267 0)
(0.847934 0.43072 5.43397e-22)
(0.856982 0.441456 -3.28793e-22)
(0.866377 0.45236 -1.2017e-22)
(0.876381 0.463347 2.50211e-22)
(0.887278 0.474118 -4.47004e-23)
(0.89938 0.484717 2.79893e-22)
(0.912707 0.49458 -1.11546e-21)
(0.927366 0.503718 2.36049e-21)
(0.943486 0.511903 -3.33928e-21)
(0.960666 0.518522 -2.33536e-21)
(0.979039 0.523669 2.91583e-21)
(0.998501 0.527158 -3.60284e-21)
(1.01832 0.528497 7.48346e-21)
(1.03833 0.527749 4.89888e-21)
(1.05869 0.525059 1.05584e-20)
(1.07866 0.520302 6.32955e-22)
(1.09768 0.513584 -6.91901e-21)
(1.11592 0.505128 2.90922e-20)
(1.13335 0.495081 -3.81849e-20)
(1.14954 0.483677 3.30067e-20)
(1.16415 0.471234 -8.7326e-21)
(1.17738 0.457917 0)
(1.18939 0.443825 -7.60747e-22)
(1.20016 0.429124 0)
(1.20945 0.414218 0)
(1.21733 0.399261 0)
(1.22412 0.384155 7.28417e-22)
(1.22987 0.368975 3.3475e-20)
(1.23462 0.353799 -3.37596e-20)
(1.23832 0.338941 -3.54175e-22)
(1.24108 0.324439 -2.31854e-20)
(1.24307 0.310108 1.15146e-20)
(1.24434 0.295973 -1.13245e-20)
(1.24492 0.28206 -1.76728e-20)
(1.24486 0.268515 -5.70364e-21)
(1.24421 0.255386 1.17526e-20)
(1.24304 0.242552 0)
(1.24136 0.229983 -5.73513e-21)
(1.23921 0.217724 -7.18743e-21)
(1.23654 0.205834 1.50729e-21)
(0.857678 0.419058 4.94336e-22)
(0.866055 0.42873 0)
(0.874739 0.438535 -9.35618e-22)
(0.883948 0.448403 2.28964e-22)
(0.893925 0.458081 -5.14969e-23)
(0.904937 0.467614 3.96901e-23)
(0.917007 0.476524 0)
(0.930233 0.484833 -1.02235e-21)
(0.944739 0.492359 1.44746e-21)
(0.960205 0.498568 -1.98956e-21)
(0.97676 0.50355 -2.55221e-21)
(0.994341 0.50714 -4.50271e-22)
(1.01235 0.508872 -4.31083e-22)
(1.03064 0.508785 0)
(1.04937 0.506996 -1.37361e-20)
(1.06789 0.503339 1.45512e-20)
(1.08572 0.497863 0)
(1.10297 0.490754 -1.1979e-20)
(1.1196 0.482128 6.78173e-21)
(1.13521 0.472155 -1.42369e-20)
(1.14946 0.461093 6.7106e-21)
(1.1625 0.449101 0)
(1.17446 0.436278 8.05773e-21)
(1.1853 0.422774 -8.52381e-21)
(1.19476 0.408945 0)
(1.20289 0.394948 -1.82215e-20)
(1.20998 0.380718 1.90314e-20)
(1.21607 0.366334 9.86289e-21)
(1.22118 0.351879 -1.91819e-20)
(1.22526 0.337646 0)
(1.2284 0.323685 2.88928e-22)
(1.23076 0.309841 -1.97342e-20)
(1.2324 0.296144 1.04046e-20)
(1.23334 0.282626 0)
(1.23361 0.269427 5.25578e-21)
(1.23329 0.256601 -5.27121e-21)
(1.23242 0.24404 5.00673e-21)
(1.23104 0.23172 5.28852e-21)
(1.22917 0.219686 1.0296e-20)
(1.22675 0.207992 5.09946e-21)
(0.866344 0.408403 0)
(0.874145 0.417168 0)
(0.882222 0.426034 2.59098e-23)
(0.89076 0.434947 -4.16899e-22)
(0.899968 0.443684 9.58188e-24)
(0.910076 0.452294 2.27406e-22)
(0.921106 0.460362 0)
(0.933145 0.46792 0)
(0.94631 0.474819 1.29338e-21)
(0.96034 0.480593 -1.32511e-21)
(0.975356 0.485329 4.67793e-22)
(0.991324 0.488884 -2.09687e-21)
(1.00774 0.490825 0)
(1.0245 0.491175 0)
(1.04174 0.490033 6.93903e-21)
(1.0589 0.48721 -7.88125e-21)
(1.07556 0.482717 7.55205e-22)
(1.0918 0.476707 6.00531e-21)
(1.10758 0.46927 -1.055e-20)
(1.12253 0.460525 0)
(1.13631 0.450677 6.04451e-21)
(1.14904 0.439874 6.38873e-21)
(1.16082 0.42821 0)
(1.17159 0.41582 7.17576e-21)
(1.18109 0.403013 -1.49447e-20)
(1.18935 0.389944 0)
(1.19663 0.376575 8.30019e-21)
(1.20295 0.362984 -8.01836e-21)
(1.20832 0.349258 2.47404e-20)
(1.21269 0.335667 0)
(1.21614 0.322272 1.72822e-20)
(1.21881 0.308943 9.00409e-21)
(1.22076 0.295714 8.58231e-21)
(1.222 0.282623 -8.87131e-21)
(1.22258 0.269804 8.95901e-21)
(1.22254 0.257314 0)
(1.22195 0.245059 -4.63671e-21)
(1.22084 0.233021 0)
(1.21922 0.221243 -4.64507e-21)
(1.21704 0.209777 -4.70165e-21)
(0.874099 0.398612 2.99602e-22)
(0.881396 0.406595 -4.11937e-22)
(0.888947 0.414652 8.31419e-22)
(0.896909 0.42274 1.92623e-22)
(0.905462 0.430664 1.91093e-24)
(0.914806 0.438468 -3.70366e-22)
(0.92496 0.445794 1.60613e-22)
(0.936003 0.452677 -1.28598e-21)
(0.948041 0.458992 -7.33332e-22)
(0.960855 0.464334 -1.11939e-21)
(0.97456 0.468785 3.08355e-22)
(0.989138 0.47222 4.1843e-21)
(1.00417 0.474246 -4.29134e-21)
(1.01957 0.474874 -5.64162e-22)
(1.03545 0.474189 -6.61361e-22)
(1.05136 0.471995 1.46334e-20)
(1.06691 0.468274 -7.36815e-21)
(1.08216 0.463154 8.20744e-21)
(1.09707 0.456704 -9.59436e-21)
(1.11131 0.449002 7.81419e-23)
(1.12455 0.440209 -5.61085e-21)
(1.13688 0.430462 5.6827e-21)
(1.14838 0.419844 -1.82527e-22)
(1.15897 0.408476 0)
(1.16841 0.396623 0)
(1.1767 0.384438 -1.30663e-20)
(1.18407 0.371898 -6.73761e-21)
(1.19052 0.359083 -6.92411e-21)
(1.19608 0.346078 -4.6263e-22)
(1.20067 0.333132 -2.21739e-20)
(1.20434 0.320313 7.25281e-21)
(1.20727 0.307514 0)
(1.20947 0.294774 -1.57123e-20)
(1.21097 0.282131 1.53884e-20)
(1.2118 0.269716 0)
(1.21202 0.257588 7.88748e-21)
(1.21168 0.245665 -4.00328e-21)
(1.2108 0.233934 -7.96234e-21)
(1.20941 0.222439 5.98583e-21)
(1.20745 0.211227 -5.93239e-21)
(0.881074 0.389569 0)
(0.887927 0.396873 0)
(0.895015 0.404226 -6.36784e-22)
(0.902475 0.411597 0)
(0.910462 0.418811 0)
(0.91915 0.42591 -1.33504e-22)
(0.928556 0.43258 1.36857e-22)
(0.93875 0.438858 1.21125e-21)
(0.949827 0.444638 1.71873e-21)
(0.961602 0.449564 3.26701e-21)
(0.974181 0.453715 4.1926e-21)
(0.987556 0.456982 3.57338e-21)
(1.00137 0.45901 -3.22025e-21)
(1.01556 0.459803 1.67151e-22)
(1.03024 0.459435 -4.94337e-21)
(1.045 0.457711 1.19683e-20)
(1.0595 0.454595 -6.34809e-21)
(1.07379 0.450194 7.03022e-21)
(1.08786 0.444559 0)
(1.10136 0.437738 1.78975e-20)
(1.11403 0.429858 -1.7938e-20)
(1.1259 0.42104 -9.47678e-21)
(1.13705 0.411357 -2.08054e-20)
(1.14739 0.400916 -5.38441e-22)
(1.15668 0.389945 -3.2097e-22)
(1.16492 0.378588 2.37787e-20)
(1.17229 0.366837 6.27956e-21)
(1.1788 0.354768 1.85515e-20)
(1.18447 0.342464 -1.89633e-20)
(1.1892 0.330156 6.74062e-21)
(1.19305 0.317914 1.32817e-20)
(1.19616 0.305651 -1.34066e-20)
(1.19856 0.293408 0)
(1.20028 0.281227 -7.07932e-21)
(1.20133 0.269232 0)
(1.20176 0.257484 1.68959e-22)
(1.20163 0.245913 -7.03067e-21)
(1.20096 0.23451 0)
(1.19979 0.223317 6.87071e-21)
(1.19802 0.212381 1.90318e-22)
(0.887377 0.381181 5.83393e-22)
(0.893833 0.387888 -8.57572e-23)
(0.900511 0.394626 1.06622e-22)
(0.907527 0.401368 -1.67868e-24)
(0.915018 0.40796 2.80529e-23)
(0.923135 0.414438 1.15448e-22)
(0.931894 0.420527 2.88986e-22)
(0.941354 0.426262 5.49442e-22)
(0.951603 0.431554 8.10207e-22)
(0.962481 0.436089 -2.77464e-21)
(0.974085 0.439941 -2.43295e-21)
(0.986413 0.443015 0)
(0.999164 0.444991 6.82014e-21)
(1.01228 0.445869 6.8073e-23)
(1.02587 0.445715 -8.59421e-21)
(1.03958 0.44434 -5.36313e-21)
(1.05311 0.441697 5.50904e-21)
(1.06651 0.437876 6.03928e-21)
(1.07974 0.432914 -6.6359e-21)
(1.09253 0.426837 0)
(1.1046 0.419742 8.35242e-21)
(1.11598 0.411736 9.34975e-21)
(1.12673 0.402884 1.02738e-21)
(1.13677 0.393279 -2.8236e-20)
(1.14585 0.383116 -9.59825e-21)
(1.15396 0.372528 0)
(1.16127 0.361519 1.07244e-20)
(1.16778 0.35016 -2.2149e-20)
(1.17348 0.338531 1.15744e-20)
(1.17829 0.326844 -3.85506e-22)
(1.18226 0.315171 1.12417e-20)
(1.18551 0.303441 2.33413e-20)
(1.18807 0.291697 -5.84588e-21)
(1.18995 0.279984 0)
(1.19118 0.268418 -5.9716e-21)
(1.19179 0.257061 6.36293e-21)
(1.19184 0.245856 0)
(1.19136 0.234794 6.08079e-21)
(1.19037 0.223921 -7.9941e-21)
(1.18877 0.213276 4.78017e-21)
(0.893097 0.373371 0)
(0.899196 0.379552 0)
(0.905505 0.385746 -2.23482e-22)
(0.912124 0.391934 -1.4927e-24)
(0.919175 0.397976 -4.06116e-23)
(0.92679 0.403905 0)
(0.93498 0.409478 5.40539e-22)
(0.943801 0.414726 -1.75202e-21)
(0.953328 0.419575 0)
(0.963424 0.423746 0)
(0.974176 0.427308 0)
(0.985587 0.430179 -2.67759e-21)
(0.997397 0.432068 2.49945e-21)
(1.00956 0.432977 -3.43449e-22)
(1.02217 0.432961 -1.3653e-22)
(1.03492 0.431844 -6.64048e-23)
(1.04756 0.429571 -3.91107e-22)
(1.06012 0.426218 -5.70663e-21)
(1.07257 0.421812 0)
(1.08466 0.416361 0)
(1.09612 0.40994 0)
(1.107 0.402644 2.29456e-20)
(1.11732 0.394528 -1.48424e-20)
(1.12701 0.385672 1.70035e-20)
(1.13584 0.376244 4.63914e-22)
(1.14378 0.366367 -9.12681e-21)
(1.15097 0.35605 9.21876e-21)
(1.15742 0.34536 -9.71372e-21)
(1.16311 0.334374 1.93687e-20)
(1.16795 0.323285 -6.21939e-22)
(1.17198 0.312167 -1.0639e-20)
(1.17532 0.300962 -6.21982e-22)
(1.17799 0.289713 -4.8659e-21)
(1.18001 0.278466 1.07706e-20)
(1.18137 0.267332 1.62804e-22)
(1.18213 0.256374 -5.49169e-21)
(1.18234 0.245542 5.5086e-21)
(1.18201 0.234833 -1.66817e-20)
(1.18118 0.224289 4.03409e-21)
(1.17975 0.213949 1.38785e-21)
(0.898306 0.366075 -1.30516e-22)
(0.904081 0.371789 2.53833e-22)
(0.910056 0.377501 8.25008e-22)
(0.916319 0.383197 2.28496e-22)
(0.922975 0.38875 -1.31529e-23)
(0.930142 0.394191 2.67073e-23)
(0.937829 0.399303 -3.61055e-23)
(0.946085 0.404115 -4.02457e-22)
(0.954977 0.408562 1.71212e-21)
(0.964385 0.412397 -2.64177e-21)
(0.974387 0.415683 1.71298e-21)
(0.984988 0.418348 2.59202e-22)
(0.995963 0.420132 -5.08033e-21)
(1.00727 0.421033 -5.99843e-21)
(1.019 0.421102 3.56119e-21)
(1.03089 0.420173 7.79677e-21)
(1.04271 0.418189 4.54303e-21)
(1.05449 0.415214 -1.37952e-20)
(1.0662 0.411268 0)
(1.0776 0.406345 0)
(1.08848 0.400504 5.91644e-21)
(1.09885 0.393826 1.3351e-20)
(1.10873 0.38636 -1.3765e-20)
(1.11805 0.378175 -5.67477e-22)
(1.12659 0.369414 -5.03907e-22)
(1.13432 0.360188 -4.46967e-22)
(1.14136 0.350513 7.92808e-21)
(1.1477 0.340451 8.41092e-21)
(1.15333 0.330074 -1.78157e-20)
(1.15815 0.319557 8.3566e-21)
(1.16221 0.308975 9.17821e-21)
(1.1656 0.298281 -4.81946e-22)
(1.16834 0.287518 3.20775e-22)
(1.17045 0.276732 9.57673e-21)
(1.17192 0.26603 -4.8385e-21)
(1.1728 0.255472 -9.76504e-21)
(1.17313 0.245017 4.92584e-21)
(1.17294 0.234665 5.09125e-21)
(1.17224 0.224458 -2.74846e-22)
(1.17095 0.214432 0)
(0.903067 0.359241 9.69204e-22)
(0.908546 0.364537 -1.66469e-22)
(0.914216 0.369818 -4.12266e-22)
(0.920154 0.375075 -2.0443e-22)
(0.926453 0.380193 -1.39048e-23)
(0.933217 0.385198 -1.58554e-22)
(0.940455 0.389896 -7.19241e-22)
(0.948208 0.394315 7.08251e-22)
(0.956535 0.398398 0)
(0.965333 0.401923 1.30772e-21)
(0.974669 0.40495 -1.62718e-21)
(0.984551 0.407414 4.04471e-21)
(0.994781 0.409082 -6.73397e-21)
(1.00533 0.40995 2.65554e-21)
(1.01627 0.410065 6.35931e-21)
(1.02737 0.409272 -1.00235e-20)
(1.03843 0.407514 0)
(1.04948 0.404846 4.36635e-21)
(1.06049 0.40128 0)
(1.07126 0.396805 4.8342e-21)
(1.08157 0.391463 -1.66513e-20)
(1.09144 0.385325 1.11781e-20)
(1.10087 0.378433 -1.22175e-20)
(1.10981 0.370847 0)
(1.11804 0.362688 -6.54585e-21)
(1.12552 0.354059 0)
(1.13238 0.344978 -1.47506e-20)
(1.13858 0.335501 1.48986e-20)
(1.14411 0.325697 0)
(1.14889 0.315725 -1.62386e-20)
(1.15293 0.305657 -8.8572e-23)
(1.15634 0.295457 8.01017e-21)
(1.15912 0.285168 -8.38979e-21)
(1.16128 0.274835 0)
(1.16283 0.264558 0)
(1.1638 0.254398 0)
(1.16423 0.244321 1.29305e-20)
(1.16415 0.234329 -4.42738e-21)
(1.16358 0.224463 -2.4699e-22)
(1.16241 0.214756 0)
(0.907432 0.352822 -2.23622e-22)
(0.912638 0.357742 -1.49591e-22)
(0.918028 0.362637 3.46866e-22)
(0.923668 0.367501 -1.83065e-22)
(0.929642 0.372228 2.11604e-23)
(0.936042 0.376842 -1.96169e-22)
(0.942873 0.381169 1.57026e-22)
(0.950174 0.385234 -4.75113e-22)
(0.957997 0.388986 1.57036e-21)
(0.966248 0.392227 1.08429e-21)
(0.974989 0.395011 0)
(0.984228 0.397283 1.83054e-21)
(0.99379 0.398829 2.19584e-22)
(1.00365 0.399649 -2.53404e-21)
(1.01387 0.399782 5.00798e-21)
(1.02426 0.399086 0)
(1.03463 0.397506 0)
(1.04501 0.395087 1.48995e-20)
(1.05537 0.391839 6.02565e-22)
(1.06553 0.387743 -4.55997e-21)
(1.07529 0.382831 9.21409e-21)
(1.08467 0.377164 -9.83404e-21)
(1.09366 0.37078 -4.86642e-21)
(1.10221 0.363729 -1.1587e-20)
(1.11012 0.356115 1.79397e-20)
(1.11734 0.348031 1.26411e-20)
(1.12398 0.339497 -3.21546e-20)
(1.13001 0.330564 1.97416e-20)
(1.13542 0.321297 1.39012e-20)
(1.14012 0.311841 -7.17639e-21)
(1.14412 0.302264 0)
(1.14752 0.292539 7.18066e-21)
(1.15031 0.282709 0)
(1.1525 0.272817 0)
(1.15411 0.262958 7.71891e-21)
(1.15514 0.253192 -1.53812e-20)
(1.15565 0.24349 -1.57383e-20)
(1.15566 0.233858 -7.69729e-21)
(1.15518 0.224333 -6.96165e-21)
(1.15412 0.214948 -9.75547e-22)
(0.911443 0.34678 0)
(0.916397 0.351362 0)
(0.921528 0.355908 -6.45146e-22)
(0.926894 0.360417 1.08961e-23)
(0.93257 0.364792 8.25973e-24)
(0.938637 0.369055 1.67441e-22)
(0.9451 0.373047 -3.42621e-22)
(0.951992 0.376791 0)
(0.959359 0.380243 -7.93551e-22)
(0.967118 0.383224 -2.97491e-21)
(0.975323 0.385783 2.40495e-21)
(0.983983 0.387871 2.9139e-21)
(0.992943 0.389296 0)
(1.00218 0.390057 -4.00336e-21)
(1.01175 0.390189 -9.55839e-21)
(1.02149 0.389562 1.02543e-20)
(1.03123 0.38812 4.55691e-22)
(1.04098 0.385906 -1.99736e-20)
(1.05073 0.382922 7.41466e-21)
(1.06032 0.37915 -2.37581e-20)
(1.06956 0.37461 -5.57313e-22)
(1.07846 0.369357 5.94375e-22)
(1.08702 0.363423 6.25143e-22)
(1.09518 0.35685 1.03026e-20)
(1.10276 0.349729 3.83031e-22)
(1.10971 0.342142 -1.04214e-20)
(1.11613 0.334111 -5.89144e-21)
(1.12198 0.325684 -6.44423e-21)
(1.12724 0.31692 1.21664e-20)
(1.13183 0.307949 -6.53492e-21)
(1.13577 0.29884 0)
(1.13912 0.28957 -1.7821e-22)
(1.1419 0.280182 -1.99746e-20)
(1.1441 0.270718 -2.83579e-23)
(1.14573 0.261267 6.90325e-21)
(1.14681 0.251887 7.19447e-21)
(1.14739 0.242556 7.2533e-21)
(1.14746 0.23328 7.30133e-21)
(1.14707 0.224096 1.05969e-20)
(1.14609 0.215033 0)
(0.915139 0.341081 3.49931e-23)
(0.919859 0.345356 -4.10059e-22)
(0.924749 0.349587 3.00167e-22)
(0.929862 0.353775 -1.58776e-22)
(0.935263 0.357832 1.20841e-23)
(0.941024 0.361777 0)
(0.94715 0.365466 3.28408e-22)
(0.953668 0.36892 0)
(0.960621 0.372098 -1.33896e-21)
(0.967934 0.37484 1.85535e-21)
(0.975655 0.377192 -2.29893e-21)
(0.983791 0.379107 -2.78337e-21)
(0.992205 0.380414 -3.09723e-21)
(1.00088 0.381109 -1.05023e-22)
(1.00986 0.381227 8.3228e-21)
(1.019 0.380646 7.19835e-23)
(1.02815 0.379315 4.32124e-22)
(1.03733 0.377268 0)
(1.04652 0.374508 1.32789e-20)
(1.05557 0.371012 -6.73207e-21)
(1.06431 0.366796 7.73315e-21)
(1.07275 0.361907 -7.73815e-21)
(1.08089 0.356371 2.54327e-20)
(1.08867 0.350228 0)
(1.09592 0.343551 0)
(1.1026 0.33642 6.15442e-22)
(1.10877 0.328852 -1.06382e-20)
(1.11442 0.320894 0)
(1.11952 0.312598 -4.13377e-22)
(1.124 0.304086 1.12339e-20)
(1.12784 0.29542 -3.88327e-22)
(1.13114 0.286585 1.17664e-20)
(1.13388 0.277621 6.21203e-21)
(1.13608 0.26857 -1.2077e-20)
(1.13771 0.259516 -1.22727e-23)
(1.13882 0.250513 6.26844e-21)
(1.13943 0.241545 0)
(1.13956 0.232621 3.02341e-21)
(1.13923 0.223774 -3.37994e-21)
(1.13834 0.215031 -6.04313e-21)
(0.918552 0.335697 7.02103e-23)
(0.923054 0.339692 6.9644e-22)
(0.92772 0.343637 -8.05519e-23)
(0.932596 0.347534 2.67552e-22)
(0.937741 0.351303 5.57516e-23)
(0.943221 0.354959 -3.20388e-23)
(0.949036 0.358373 5.6046e-22)
(0.955212 0.361562 0)
(0.961787 0.364491 2.49262e-21)
(0.968693 0.367015 0)
(0.975973 0.369174 0)
(0.983632 0.370928 0)
(0.991549 0.37212 5.74172e-21)
(0.999704 0.372749 0)
(1.00815 0.372843 3.2939e-22)
(1.01674 0.372292 -1.26617e-20)
(1.02535 0.371048 9.14351e-21)
(1.034 0.36914 5.08042e-21)
(1.04266 0.366569 0)
(1.0512 0.363312 -6.04272e-21)
(1.05948 0.359379 -6.91122e-21)
(1.06748 0.35481 1.41994e-23)
(1.07522 0.349631 -8.28767e-21)
(1.08263 0.343872 7.47091e-21)
(1.08955 0.337599 8.32868e-21)
(1.09594 0.330883 5.44146e-22)
(1.10188 0.323743 -8.9629e-21)
(1.10732 0.316218 -3.79173e-22)
(1.11225 0.30836 -4.228e-22)
(1.11658 0.300278 0)