/*--------------------------------*- C++ -*----------------------------------*\
| =========                 |                                                 |
| \\      /  F ield         | OpenFOAM: The Open Source CFD Toolbox           |
|  \\    /   O peration     | Version:  3.0.1                                 |
|   \\  /    A nd           | Web:      www.OpenFOAM.org                      |
|    \\/     M anipulation  |                                                 |
\*---------------------------------------------------------------------------*/
FoamFile
{
    version     2.0;
    format      ascii;
    class       volScalarField;
    location    "500";
    object      nut;
}
// * * * * * * * * * * * * * * * * * * * * * * * * * * * * * * * * * * * * * //

dimensions      [0 2 -1 0 0 0 0];

internalField   nonuniform List<scalar> 
58000
(
0.00075886
0.000660513
0.000554462
0.0004685
0.000422814
0.000404194
0.000395298
0.00038613
0.000380476
0.000377264
0.00037488
0.000374303
0.000375749
0.000377394
0.000379366
0.000381978
0.000385193
0.000388763
0.000392519
0.000396492
0.000400721
0.000405055
0.000409541
0.000413973
0.000418515
0.000422814
0.000427103
0.000431348
0.000435404
0.000439375
0.000442991
0.000446394
0.000449523
0.000452321
0.000454826
0.000456633
0.000457659
0.000458147
0.000458081
0.000459563
0.0029785
0.00267309
0.00234684
0.0020396
0.00178663
0.00158149
0.00142171
0.00129292
0.00119416
0.00112026
0.00106177
0.00101798
0.000985079
0.000956951
0.000930135
0.000908961
0.000893329
0.000879883
0.000867497
0.000857826
0.00085133
0.000846053
0.00084139
0.000837038
0.00083468
0.000832594
0.000830504
0.000828371
0.000826029
0.000824493
0.000823014
0.000819934
0.000815436
0.000809882
0.00080377
0.000795911
0.000786881
0.000777986
0.000770191
0.000768381
0.00520156
0.00484488
0.00442657
0.00397483
0.00356364
0.00320926
0.00292723
0.00269454
0.00250538
0.00235722
0.00223703
0.00213682
0.00206087
0.00199993
0.00194644
0.00190417
0.00187232
0.00184588
0.00182256
0.0018043
0.00179135
0.00178056
0.00177058
0.00176088
0.00175404
0.00174664
0.00173795
0.00172838
0.001718
0.0017094
0.0017008
0.00169173
0.00168217
0.00167167
0.00165992
0.00164525
0.00162838
0.00161126
0.00159579
0.00158891
0.00742905
0.00704178
0.00656263
0.00604512
0.00554492
0.00507729
0.00468212
0.00434358
0.00406099
0.00383548
0.00364547
0.00348611
0.00336232
0.00326141
0.00317356
0.00310352
0.00304946
0.00300411
0.00296407
0.00293178
0.00290737
0.00288643
0.00286522
0.00284369
0.00282715
0.00281237
0.00279738
0.00278191
0.00276541
0.00275046
0.00273489
0.0027179
0.00269963
0.0026802
0.00266048
0.00263743
0.00261142
0.00258468
0.00255986
0.00254406
0.00962922
0.00922764
0.00872012
0.00816435
0.00760674
0.00707351
0.0065994
0.00617543
0.00580821
0.00550691
0.00524759
0.00502602
0.00485045
0.00470513
0.00457745
0.00447394
0.00439246
0.0043232
0.00426116
0.00420958
0.00416792
0.00413127
0.004097
0.00406384
0.0040382
0.00401399
0.00398892
0.00396301
0.00393614
0.00391331
0.00388956
0.00386371
0.00383587
0.00380625
0.00377676
0.00374366
0.003707
0.00366923
0.00363353
0.00360671
0.0118007
0.0113916
0.0108705
0.0102918
0.0097051
0.00912796
0.00860118
0.00811824
0.00768446
0.00731784
0.00699532
0.00671377
0.00648594
0.00629469
0.00612504
0.00598477
0.005872
0.00577526
0.00568678
0.00561144
0.00555081
0.00549751
0.0054485
0.00539994
0.00535938
0.00532275
0.00528646
0.00525008
0.00521184
0.00517694
0.00514266
0.00510727
0.00506901
0.00502817
0.00498736
0.00494269
0.00489399
0.00484384
0.00479575
0.00475616
0.0139469
0.0135342
0.0130078
0.0124183
0.0118157
0.0112113
0.01065
0.0101218
0.00963977
0.00922272
0.00884798
0.00851234
0.00823525
0.00799919
0.00778846
0.00761021
0.00746378
0.00733557
0.00721922
0.00711979
0.00703929
0.00696651
0.00689765
0.00683197
0.00677746
0.00672716
0.00667716
0.00662676
0.00657609
0.00652903
0.00648272
0.00643549
0.00638486
0.0063312
0.00627751
0.00621988
0.00615789
0.00609414
0.00603236
0.00597857
0.0160718
0.0156574
0.0151299
0.0145366
0.0139264
0.0133066
0.0127216
0.0121644
0.0116461
0.0111864
0.0107674
0.0103885
0.0100689
0.00979129
0.00953873
0.00932357
0.00914503
0.00898709
0.0088427
0.00871814
0.0086135
0.00851995
0.00843176
0.00834813
0.00827571
0.00820988
0.00814591
0.00808101
0.00801508
0.00795495
0.00789552
0.00783475
0.00777039
0.0077028
0.00763512
0.0075635
0.00748722
0.00740889
0.00733236
0.00726322
0.018179
0.0177642
0.0172377
0.0166442
0.0160312
0.0154043
0.014805
0.0142282
0.0136818
0.0131927
0.0127393
0.012322
0.0119646
0.01165
0.0113607
0.0111111
0.0109024
0.0107151
0.0105421
0.0103903
0.010262
0.0101478
0.0100392
0.00993492
0.00984498
0.00976236
0.00968122
0.00960122
0.00951976
0.00944483
0.00937066
0.00929406
0.00921552
0.00913344
0.00905103
0.00896457
0.00887317
0.00877945
0.00868727
0.00860188
0.0202715
0.0198571
0.0193331
0.0187414
0.0181267
0.017499
0.0168924
0.0163036
0.0157381
0.0152257
0.0147439
0.0142976
0.0139092
0.0135624
0.0132401
0.012958
0.0127175
0.0125016
0.0123016
0.0121254
0.0119734
0.0118362
0.0117074
0.011583
0.011473
0.0113733
0.0112751
0.0111782
0.01108
0.010989
0.0108994
0.0108073
0.0107134
0.0106161
0.0105181
0.0104159
0.0103086
0.0101988
0.0100903
0.00998794
0.022352
0.0219384
0.0214179
0.0208301
0.0202175
0.01959
0.0189795
0.0183831
0.0178052
0.0172744
0.0167727
0.0163025
0.0158881
0.0155123
0.0151607
0.0148498
0.0145816
0.0143397
0.0141134
0.013911
0.0137355
0.0135768
0.0134258
0.0132817
0.0131524
0.0130334
0.0129179
0.0128024
0.0126873
0.0125789
0.0124741
0.0123664
0.012257
0.0121447
0.01203
0.0119113
0.0117876
0.0116612
0.0115358
0.011416
0.0244223
0.0240099
0.0234935
0.0229106
0.0223018
0.0216766
0.0210645
0.0204621
0.019878
0.0193352
0.0188177
0.0183267
0.01789
0.0174925
0.0171166
0.0167802
0.0164862
0.0162176
0.0159661
0.0157406
0.0155423
0.0153606
0.0151886
0.0150228
0.0148747
0.014737
0.0146036
0.01447
0.0143358
0.014211
0.0140902
0.0139657
0.0138401
0.0137116
0.0135804
0.0134453
0.013305
0.0131617
0.0130191
0.0128815
0.0264842
0.026073
0.0255609
0.0249836
0.0243798
0.0237584
0.0231474
0.0225429
0.0219542
0.0214029
0.0208739
0.0203675
0.0199128
0.0194956
0.0190979
0.0187388
0.0184219
0.0181301
0.0178547
0.0176047
0.0173852
0.0171821
0.016988
0.0168022
0.016633
0.0164758
0.0163251
0.016174
0.0160219
0.0158801
0.0157426
0.0156011
0.0154586
0.0153133
0.0151654
0.0150138
0.0148568
0.0146965
0.0145365
0.0143809
0.0285392
0.0281291
0.0276212
0.0270498
0.0264516
0.0258351
0.0252266
0.0246224
0.0240313
0.0234739
0.022936
0.0224182
0.0219492
0.0215147
0.0210967
0.020717
0.0203794
0.0200677
0.0197709
0.0194989
0.0192566
0.0190335
0.0188194
0.0186137
0.0184245
0.0182475
0.0180771
0.0179091
0.0177397
0.0175807
0.0174265
0.017268
0.0171076
0.016946
0.0167818
0.0166136
0.0164398
0.0162623
0.0160848
0.0159109
0.0305889
0.0301789
0.0296753
0.0291099
0.0285178
0.0279067
0.027302
0.0266996
0.0261078
0.0255462
0.0250004
0.0244751
0.0239946
0.0235448
0.0231124
0.0227157
0.0223589
0.0220256
0.0217078
0.0214161
0.021153
0.0209089
0.020676
0.0204506
0.0202423
0.0200467
0.0198569
0.0196719
0.0194853
0.0193081
0.0191377
0.0189629
0.0187858
0.0186077
0.0184267
0.0182418
0.018051
0.0178563
0.017661
0.0174688
0.03263
0.0322221
0.0317232
0.0311642
0.0305786
0.0299736
0.0293733
0.0287738
0.028183
0.0276193
0.0270688
0.0265368
0.026047
0.025586
0.0251409
0.0247293
0.0243558
0.0240036
0.0236654
0.0233522
0.0230686
0.0228061
0.022554
0.022307
0.0220808
0.0218695
0.0216622
0.0214587
0.0212562
0.0210619
0.0208737
0.0206833
0.02049
0.0202953
0.0200976
0.0198959
0.019688
0.0194759
0.0192628
0.0190522
0.034665
0.0342594
0.0337657
0.0332134
0.0326345
0.0320359
0.0314407
0.0308449
0.0302561
0.0296919
0.0291386
0.0286015
0.0281026
0.0276336
0.0271782
0.0267539
0.0263654
0.0259962
0.0256379
0.0253067
0.0250042
0.0247213
0.0244505
0.0241866
0.0239429
0.0237151
0.0234906
0.0232696
0.0230506
0.0228396
0.0226342
0.0224276
0.0222178
0.0220064
0.0217918
0.0215732
0.0213483
0.0211188
0.0208879
0.0206588
0.0366948
0.0362915
0.0358031
0.0352578
0.0346859
0.0340938
0.033504
0.0329126
0.0323266
0.0317631
0.0312086
0.0306682
0.0301633
0.0296867
0.0292221
0.0287865
0.0283847
0.0280004
0.0276247
0.0272748
0.0269561
0.0266553
0.0263674
0.0260859
0.0258247
0.0255804
0.025339
0.0251009
0.0248657
0.024638
0.024416
0.024193
0.0239666
0.0237384
0.0235071
0.0232716
0.0230296
0.0227828
0.0225342
0.0222868
0.0387195
0.0383186
0.0378358
0.0372977
0.0367332
0.0361476
0.0355634
0.0349767
0.0343943
0.0338323
0.0332778
0.0327355
0.0322262
0.0317432
0.0312706
0.0308248
0.0304107
0.0300131
0.0296225
0.0292562
0.0289221
0.0286035
0.028297
0.0280003
0.0277227
0.027462
0.0272042
0.0269497
0.0266986
0.0264546
0.0262161
0.025977
0.0257341
0.0254892
0.0252411
0.0249889
0.02473
0.0244661
0.0241999
0.0239342
0.040739
0.0403408
0.0398635
0.0393329
0.0387771
0.0381974
0.0376188
0.0370372
0.0364588
0.0358992
0.0353454
0.0348024
0.0342897
0.0338016
0.0333222
0.0328674
0.0324408
0.0320321
0.0316284
0.0312471
0.030896
0.030563
0.0302405
0.0299284
0.0296345
0.0293564
0.0290837
0.0288136
0.0285469
0.028287
0.0280324
0.0277773
0.0275181
0.0272565
0.026992
0.0267233
0.0264479
0.026167
0.0258833
0.0255996
0.0427534
0.042358
0.0418861
0.0413626
0.0408144
0.0402419
0.0396696
0.0390936
0.0385198
0.0379632
0.0374112
0.0368681
0.0363532
0.0358608
0.0353757
0.0349136
0.0344775
0.0340562
0.033641
0.0332462
0.0328805
0.0325327
0.0321949
0.0318678
0.0315583
0.0312643
0.0309764
0.0306906
0.0304082
0.0301328
0.0298627
0.0295921
0.0293168
0.0290378
0.0287579
0.0284734
0.0281817
0.027884
0.0275831
0.0272816
0.0447626
0.04437
0.0439038
0.0433873
0.0428463
0.0422813
0.0417158
0.0411458
0.040577
0.040024
0.0394747
0.0389322
0.038416
0.0379197
0.0374297
0.0369614
0.0365189
0.0360878
0.0356595
0.0352515
0.0348729
0.0345103
0.0341575
0.0338157
0.0334916
0.0331827
0.0328801
0.032579
0.0322799
0.0319905
0.0317056
0.0314199
0.0311291
0.0308343
0.0305386
0.0302381
0.0299301
0.0296158
0.0292978
0.0289786
0.0467661
0.0463767
0.0459164
0.0454072
0.0448731
0.0443157
0.0437572
0.0431937
0.0426298
0.0420809
0.0415359
0.0409938
0.0404779
0.0399773
0.0394827
0.0390086
0.0385589
0.0381189
0.0376799
0.0372598
0.0368671
0.0364925
0.0361262
0.0357692
0.0354324
0.0351097
0.0347931
0.0344773
0.0341633
0.0338593
0.0335597
0.0332592
0.0329535
0.0326437
0.0323323
0.0320159
0.0316917
0.031361
0.0310261
0.0306895
0.0487634
0.0483775
0.0479234
0.0474226
0.0468946
0.0463444
0.0457932
0.0452376
0.0446779
0.0441325
0.0435907
0.0430505
0.0425346
0.0420319
0.0415337
0.0410542
0.0405976
0.0401494
0.0397012
0.0392704
0.0388657
0.0384791
0.0381001
0.0377299
0.03738
0.0370439
0.0367138
0.036384
0.0360557
0.0357375
0.0354235
0.0351086
0.0347885
0.034465
0.0341375
0.0338051
0.033465
0.0331181
0.0327667
0.032413
0.0507541
0.0503718
0.0499239
0.0494301
0.0489094
0.0483669
0.0478229
0.0472739
0.0467198
0.0461787
0.0456402
0.0451023
0.0445869
0.044083
0.043582
0.0430978
0.0426346
0.0421787
0.0417221
0.0412817
0.0408662
0.0404685
0.0400777
0.0396951
0.0393328
0.0389837
0.0386405
0.0382973
0.0379553
0.0376234
0.0372954
0.0369664
0.0366321
0.0362942
0.0359518
0.0356041
0.0352485
0.0348858
0.0345183
0.0341479
0.0527372
0.052359
0.0519184
0.0514304
0.0509171
0.0503827
0.0498463
0.0493038
0.0487556
0.0482192
0.0476844
0.0471494
0.0466351
0.0461309
0.0456274
0.0451387
0.0446692
0.0442056
0.0437414
0.0432924
0.0428671
0.042459
0.0420572
0.0416631
0.0412889
0.0409275
0.0405717
0.0402156
0.0398606
0.0395155
0.039174
0.0388313
0.0384831
0.038131
0.0377741
0.0374116
0.0370411
0.0366631
0.0362799
0.0358932
0.054712
0.054338
0.0539032
0.0534225
0.0529171
0.0523914
0.0518639
0.051327
0.050785
0.0502539
0.049723
0.0491914
0.0486784
0.0481757
0.0476696
0.0471764
0.0467005
0.0462285
0.0457581
0.0453013
0.044867
0.0444492
0.0440372
0.0436323
0.043247
0.0428737
0.0425058
0.0421376
0.0417702
0.0414125
0.0410579
0.040702
0.0403403
0.0399744
0.0396034
0.0392267
0.0388416
0.0384488
0.0380504
0.037648
0.0566776
0.0563091
0.0558791
0.0554057
0.0549087
0.0543917
0.0538719
0.0533421
0.0528071
0.0522828
0.0517552
0.0512282
0.0507155
0.050213
0.0497074
0.0492101
0.0487285
0.0482493
0.0477718
0.0473074
0.0468647
0.0464379
0.0460164
0.0456015
0.0452056
0.044821
0.0444414
0.044062
0.043683
0.0433132
0.0429461
0.0425774
0.0422026
0.0418233
0.0414388
0.0410482
0.0406491
0.040242
0.0398289
0.0394114
0.0586326
0.0582684
0.057845
0.0573796
0.0568913
0.0563844
0.0558711
0.0553486
0.0548208
0.0543018
0.0537788
0.0532556
0.052745
0.0522425
0.0517363
0.0512379
0.0507517
0.050265
0.0497807
0.0493093
0.0488588
0.0484238
0.0479935
0.0475694
0.0471636
0.0467681
0.0463764
0.0459877
0.045598
0.0452166
0.0448374
0.0444563
0.0440689
0.0436768
0.0432791
0.0428753
0.0424627
0.0420419
0.0416146
0.0411825
0.0605766
0.0602169
0.0598004
0.0593435
0.0588641
0.0583656
0.0578602
0.0573457
0.0568265
0.0563121
0.0557938
0.0552743
0.0547673
0.0542643
0.0537568
0.0532553
0.0527642
0.0522725
0.0517829
0.0513055
0.0508481
0.0504056
0.0499674
0.0495349
0.04912
0.0487147
0.0483125
0.0479138
0.0475138
0.0471213
0.0467306
0.0463377
0.0459382
0.0455337
0.0451235
0.044707
0.0442815
0.0438474
0.0434066
0.0429606
0.062509
0.062154
0.0617448
0.0612971
0.0608275
0.0603362
0.0598389
0.0593326
0.0588206
0.0583122
0.0578003
0.0572833
0.0567785
0.0562775
0.0557692
0.0552632
0.054766
0.054271
0.0537772
0.0532948
0.0528314
0.0523823
0.0519369
0.0514968
0.0510736
0.0506592
0.0502477
0.0498394
0.0494295
0.0490265
0.0486247
0.0482203
0.0478091
0.047393
0.046971
0.0465424
0.0461045
0.0456579
0.0452042
0.0447449
0.064429
0.0640789
0.0636774
0.0632397
0.0627776
0.0622949
0.0618063
0.0613097
0.0608039
0.0603016
0.0597948
0.0592817
0.0587788
0.0582778
0.0577686
0.0572611
0.0567591
0.0562604
0.055763
0.0552763
0.0548077
0.0543527
0.053901
0.0534542
0.0530233
0.0526008
0.0521805
0.0517633
0.051344
0.0509311
0.0505187
0.050103
0.0496806
0.0492537
0.0488206
0.0483806
0.0479311
0.0474725
0.0470066
0.0465347
0.0663356
0.0659907
0.0655969
0.0651676
0.0647145
0.0642411
0.0637615
0.0632731
0.0627753
0.0622805
0.061778
0.06127
0.060769
0.0602666
0.0597555
0.0592441
0.0587405
0.0582393
0.0577391
0.057249
0.056776
0.056316
0.0558588
0.0554059
0.0549683
0.0545382
0.05411
0.0536844
0.0532564
0.052834
0.0524115
0.0519844
0.0515523
0.0511154
0.0506718
0.050221
0.0497604
0.0492904
0.0488129
0.0483293
0.0682279
0.0678884
0.0675035
0.0670817
0.0666377
0.0661744
0.0657047
0.0652234
0.0647344
0.0642448
0.0637486
0.0632435
0.0627443
0.0622432
0.0617303
0.0612157
0.06071
0.060207
0.0597048
0.059212
0.0587355
0.0582712
0.0578093
0.0573511
0.0569074
0.0564705
0.056035
0.0556018
0.0551657
0.0547346
0.0543027
0.0538659
0.0534241
0.0529774
0.0525238
0.0520626
0.0515915
0.0511109
0.0506225
0.0501281
0.0701048
0.0697705
0.0693934
0.0689807
0.0685467
0.0680941
0.0676323
0.0671591
0.0666774
0.0661941
0.0657031
0.0652026
0.0647049
0.0642031
0.063687
0.0631726
0.0626663
0.0621624
0.061659
0.0611644
0.0606852
0.0602175
0.0597516
0.0592888
0.0588398
0.0583968
0.0579547
0.0575144
0.0570709
0.0566317
0.0561913
0.0557455
0.0552947
0.0548388
0.0543757
0.0539047
0.0534237
0.052933
0.0524346
0.0519302
0.0719657
0.0716363
0.0712668
0.0708638
0.0704407
0.0699968
0.0695442
0.0690806
0.0686055
0.0681294
0.0676425
0.0671437
0.0666464
0.0661428
0.065628
0.0651146
0.0646087
0.0641048
0.0636011
0.0631056
0.0626244
0.0621539
0.0616848
0.0612183
0.0607645
0.0603161
0.059868
0.0594213
0.0589708
0.0585243
0.058076
0.0576222
0.0571629
0.0566984
0.0562264
0.0557463
0.055256
0.054756
0.0542483
0.0537351
0.0738098
0.0734851
0.0731229
0.0727304
0.0723159
0.071882
0.0714399
0.0709841
0.0705175
0.0700467
0.0695626
0.0690676
0.0685709
0.0680666
0.0675531
0.0670412
0.0665365
0.0660334
0.0655303
0.0650346
0.0645523
0.0640799
0.0636082
0.0631385
0.0626807
0.0622275
0.061774
0.0613214
0.0608645
0.0604113
0.059956
0.0594948
0.0590278
0.0585553
0.058075
0.0575864
0.0570875
0.0565789
0.0560629
0.0555419
0.0756364
0.0753161
0.0749604
0.0745768
0.0741722
0.0737495
0.073316
0.0728697
0.0724097
0.0719427
0.0714634
0.0709705
0.070473
0.0699717
0.0694611
0.0689518
0.0684491
0.0679476
0.0674459
0.0669508
0.0664681
0.0659945
0.0655209
0.0650487
0.0645875
0.06413
0.0636718
0.0632138
0.0627506
0.0622918
0.0618302
0.0613623
0.0608884
0.0604086
0.0599206
0.0594241
0.0589172
0.0584008
0.0578773
0.0573499
0.0774449
0.0771285
0.0767789
0.0764033
0.0760094
0.0755958
0.0751726
0.0747341
0.0742794
0.0738177
0.0733417
0.0728495
0.0723559
0.0718584
0.0713516
0.0708458
0.0703458
0.0698468
0.0693471
0.0688535
0.0683713
0.0678971
0.0674222
0.066948
0.0664839
0.0660228
0.0655605
0.0650978
0.0646295
0.0641652
0.0636979
0.063224
0.0627438
0.0622573
0.0617623
0.0612585
0.0607443
0.0602208
0.0596909
0.0591584
0.0792345
0.078922
0.0785778
0.0782092
0.0778239
0.0774207
0.0770065
0.0765749
0.0761277
0.0756688
0.0751952
0.0747083
0.0742195
0.0737265
0.0732244
0.0727226
0.0722261
0.0717302
0.0712333
0.070742
0.0702614
0.0697869
0.069311
0.0688354
0.068369
0.067905
0.0674391
0.0669724
0.0664996
0.0660304
0.065558
0.0650788
0.0645933
0.0641006
0.063599
0.0630884
0.0625675
0.0620378
0.0615025
0.0609665
0.0810048
0.0806959
0.0803569
0.0799945
0.0796162
0.0792212
0.0788153
0.0783931
0.077953
0.0774978
0.0770287
0.0765473
0.0760638
0.0755759
0.0750789
0.0745819
0.0740894
0.0735971
0.0731035
0.0726153
0.0721382
0.0716629
0.0711864
0.0707099
0.0702418
0.0697754
0.0693065
0.0688363
0.0683597
0.0678863
0.0674093
0.0669256
0.0664366
0.0659374
0.0654294
0.0649127
0.0643859
0.0638509
0.0633113
0.0627734
0.0827549
0.0824498
0.0821156
0.0817591
0.0813873
0.0809994
0.0806007
0.080186
0.0797532
0.0793042
0.0788412
0.0783659
0.0778883
0.077406
0.0769147
0.0764229
0.075935
0.0754468
0.0749571
0.0744721
0.0739975
0.0735233
0.0730472
0.0725706
0.0721014
0.0716331
0.0711618
0.0706887
0.0702087
0.0697316
0.0692506
0.0687628
0.0682695
0.0677654
0.0672522
0.0667301
0.0661984
0.0656589
0.0651163
0.0645782
0.0844842
0.0841828
0.0838536
0.0835029
0.0831372
0.082756
0.082364
0.0819564
0.0815307
0.0810886
0.0806324
0.0801639
0.0796927
0.0792165
0.0787313
0.0782452
0.0777623
0.0772787
0.0767932
0.0763119
0.0758398
0.0753674
0.0748925
0.0744166
0.0739469
0.0734771
0.0730038
0.0725281
0.0720455
0.0715652
0.0710808
0.0705894
0.0700923
0.069584
0.0690663
0.0685398
0.0680038
0.0674609
0.0669165
0.0663801
0.0861919
0.0858944
0.0855702
0.0852251
0.0848656
0.0844908
0.0841055
0.0837047
0.0832862
0.0828512
0.0824022
0.0819409
0.0814764
0.0810068
0.080528
0.0800479
0.0795704
0.0790919
0.0786113
0.0781341
0.077665
0.0771947
0.0767217
0.0762474
0.0757774
0.0753065
0.0748316
0.0743535
0.0738688
0.0733861
0.072899
0.0724046
0.0719042
0.0713924
0.0708711
0.0703408
0.0698013
0.0692558
0.0687109
0.0681782
0.0878773
0.0875837
0.0872645
0.0869253
0.0865719
0.0862036
0.0858249
0.0854309
0.0850196
0.0845919
0.0841502
0.0836964
0.083239
0.0827761
0.0823041
0.0818305
0.0813588
0.0808858
0.0804106
0.0799384
0.0794722
0.0790043
0.0785337
0.0780626
0.0775918
0.07712
0.0766441
0.0761631
0.0756775
0.0751933
0.0747042
0.0742075
0.0737045
0.0731898
0.0726654
0.072132
0.0715898
0.0710427
0.0704985
0.0699713
0.0895395
0.08925
0.088936
0.0886026
0.0882555
0.0878937
0.0875216
0.0871346
0.0867304
0.0863102
0.0858761
0.0854299
0.0849798
0.084524
0.084059
0.083592
0.0831266
0.0826595
0.0821903
0.0817247
0.0812607
0.0807951
0.0803268
0.0798579
0.0793878
0.0789163
0.0784411
0.077958
0.0774714
0.0769861
0.0764956
0.0759974
0.0754923
0.0749753
0.0744484
0.0739125
0.0733683
0.0728204
0.0722781
0.0717585
0.0911777
0.0908925
0.0905838
0.0902564
0.0899155
0.0895604
0.089195
0.088815
0.0884182
0.0880055
0.0875791
0.0871407
0.0866981
0.0862495
0.0857919
0.0853319
0.084873
0.0844121
0.0839488
0.0834886
0.0830284
0.0825659
0.0821004
0.0816337
0.0811649
0.0806937
0.0802174
0.0797353
0.0792489
0.0787633
0.0782722
0.0777735
0.0772668
0.0767479
0.0762189
0.0756812
0.0751357
0.0745878
0.0740486
0.0735385
0.0927913
0.0925106
0.0922073
0.0918859
0.0915514
0.0912031
0.0908445
0.0904716
0.0900823
0.0896772
0.0892586
0.0888282
0.0883932
0.0879521
0.0875021
0.0870494
0.0865973
0.086143
0.0856859
0.0852309
0.0847748
0.0843161
0.0838538
0.0833895
0.0829225
0.0824523
0.0819764
0.0814952
0.0810094
0.080524
0.0800332
0.0795357
0.079027
0.0785064
0.0779759
0.0774369
0.0768908
0.0763439
0.0758089
0.0753101
0.0943795
0.0941034
0.0938056
0.0934904
0.0931624
0.0928209
0.0924692
0.0921036
0.0917219
0.0913246
0.0909139
0.0904916
0.0900644
0.089631
0.0891887
0.0887436
0.0882987
0.0878516
0.0874014
0.0869512
0.0864994
0.0860447
0.0855865
0.0851248
0.0846596
0.0841909
0.0837164
0.0832365
0.0827519
0.0822673
0.0817769
0.0812797
0.0807705
0.0802492
0.0797181
0.0791785
0.0786326
0.0780874
0.0775577
0.077072
0.0959418
0.0956704
0.0953782
0.0950692
0.0947477
0.0944131
0.0940686
0.0937103
0.0933363
0.0929469
0.0925443
0.0921302
0.0917109
0.0912854
0.0908511
0.0904138
0.0899766
0.089537
0.0890951
0.0886489
0.0882012
0.0877508
0.0872982
0.0868383
0.0863751
0.0859084
0.0854359
0.0849581
0.0844755
0.0839922
0.0835025
0.0830057
0.0824968
0.0819757
0.0814445
0.0809051
0.08036
0.0798172
0.0792938
0.0788229
0.0974774
0.0972108
0.0969243
0.0966217
0.0963069
0.0959793
0.0956419
0.0952911
0.094925
0.0945437
0.0941493
0.0937434
0.0933322
0.0929147
0.0924886
0.0920593
0.09163
0.0911984
0.0907629
0.0903219
0.0898788
0.0894328
0.0889845
0.0885281
0.0880679
0.0876036
0.087134
0.0866592
0.0861798
0.085698
0.0852091
0.0847132
0.0842051
0.0836847
0.0831543
0.0826157
0.082072
0.0815324
0.0810161
0.0805614
0.0989859
0.0987242
0.0984435
0.0981472
0.0978391
0.0975187
0.0971885
0.0968454
0.0964874
0.0961142
0.0957281
0.0953305
0.0949275
0.0945181
0.0941003
0.0936794
0.0932583
0.0928359
0.0924055
0.0919697
0.0915315
0.0910901
0.090646
0.0901936
0.0897371
0.0892755
0.0888099
0.0883392
0.0878645
0.0873837
0.0868956
0.0864013
0.0858947
0.0853757
0.0848466
0.0843093
0.0837677
0.0832318
0.0827234
0.082286
0.100467
0.10021
0.0999352
0.0996454
0.0993441
0.0990307
0.0987079
0.0983726
0.0980228
0.0976581
0.0972802
0.0968909
0.0964961
0.096095
0.0956858
0.0952733
0.0948603
0.0944455
0.0940215
0.0935916
0.0931588
0.0927222
0.0922821
0.0918345
0.0913824
0.0909249
0.0904632
0.089997
0.0895258
0.0890475
0.0885616
0.0880694
0.0875649
0.0870478
0.0865205
0.0859852
0.0854461
0.0849144
0.0844144
0.0839954
0.101919
0.101668
0.101399
0.101116
0.100821
0.100515
0.1002
0.099872
0.0995308
0.0991752
0.0988051
0.098424
0.0980375
0.0976449
0.0972444
0.0968407
0.0964363
0.0960283
0.0956108
0.0951873
0.0947603
0.0943287
0.0938918
0.0934503
0.0930035
0.092551
0.0920946
0.0916328
0.0911649
0.0906895
0.0902063
0.0897167
0.0892148
0.0887002
0.0881753
0.0876424
0.0871062
0.0865792
0.086088
0.0856881
0.103343
0.103097
0.102834
0.102557
0.10227
0.101971
0.101663
0.101343
0.101011
0.100665
0.100302
0.0999291
0.099551
0.099167
0.0987755
0.098381
0.0979864
0.097584
0.097173
0.0967561
0.0963357
0.0959097
0.0954778
0.0950415
0.0945995
0.0941526
0.0937034
0.093246
0.0927808
0.0923084
0.0918288
0.0913425
0.0908437
0.0903322
0.08981
0.08928
0.0887472
0.0882251
0.0877431
0.0873627
0.104739
0.104498
0.104241
0.103971
0.10369
0.103398
0.103097
0.102785
0.102461
0.102124
0.10177
0.101405
0.101036
0.100661
0.100279
0.0998936
0.0995066
0.0991112
0.0987071
0.0982976
0.0978847
0.0974647
0.0970381
0.0966068
0.0961692
0.0957286
0.0952854
0.0948331
0.0943715
0.0939033
0.0934284
0.0929461
0.092451
0.0919428
0.091424
0.0908972
0.0903681
0.0898513
0.0893785
0.0890179
0.106105
0.105869
0.105618
0.105355
0.105081
0.104796
0.104503
0.104199
0.103882
0.103554
0.103208
0.102853
0.102492
0.102126
0.101754
0.101379
0.100998
0.100609
0.100213
0.0998112
0.0994075
0.0989926
0.0985715
0.0981458
0.0977137
0.097279
0.0968415
0.0963947
0.0959382
0.0954749
0.0950053
0.0945272
0.0940359
0.0935314
0.0930162
0.0924931
0.0919681
0.0914567
0.0909933
0.0906524
0.107441
0.107211
0.106967
0.10671
0.106443
0.106165
0.105879
0.105583
0.105274
0.104954
0.104617
0.104271
0.10392
0.103563
0.1032
0.102833
0.102459
0.102078
0.101689
0.101296
0.1009
0.100492
0.100077
0.0996573
0.0992316
0.0988032
0.0983718
0.0979307
0.0974798
0.0970223
0.0965594
0.0960849
0.0955974
0.095097
0.0945858
0.0940667
0.0935462
0.0930404
0.0925863
0.092265
0.108749
0.108524
0.108286
0.108035
0.107775
0.107505
0.107226
0.106937
0.106637
0.106325
0.105997
0.105659
0.105317
0.104971
0.104618
0.104257
0.103891
0.103517
0.103137
0.102752
0.102364
0.101963
0.101555
0.10114
0.100722
0.100301
0.0998759
0.0994408
0.0989958
0.0985439
0.0980868
0.0976171
0.0971343
0.0966386
0.0961319
0.0956174
0.0951016
0.0946017
0.0941568
0.0938546
0.110026
0.109807
0.109575
0.109331
0.109078
0.108815
0.108543
0.108262
0.10797
0.107667
0.107347
0.107018
0.106685
0.106349
0.106003
0.10565
0.105292
0.104927
0.104555
0.104181
0.103799
0.103405
0.103004
0.102597
0.102187
0.101772
0.101354
0.100924
0.100485
0.10004
0.099588
0.0991237
0.0986461
0.0981555
0.0976539
0.0971444
0.0966337
0.0961397
0.0957039
0.0954201
0.111274
0.11106
0.110834
0.110597
0.11035
0.110095
0.109831
0.109558
0.109273
0.108978
0.108667
0.108347
0.108022
0.107695
0.107357
0.107012
0.106662
0.106306
0.105944
0.105578
0.105203
0.104818
0.104425
0.104026
0.103624
0.103217
0.102804
0.102381
0.101948
0.101509
0.101063
0.100604
0.100132
0.0996472
0.0991512
0.0986471
0.0981419
0.097654
0.0972269
0.0969609
0.112491
0.112284
0.112064
0.111833
0.111594
0.111345
0.111089
0.110823
0.110547
0.110261
0.109959
0.109647
0.10933
0.109009
0.10868
0.108344
0.108003
0.107655
0.107304
0.106945
0.106578
0.106202
0.105817
0.105427
0.105034
0.104635
0.104227
0.103809
0.103383
0.102952
0.102511
0.102058
0.101592
0.101113
0.100623
0.100125
0.0996257
0.099144
0.0987254
0.0984762
0.113679
0.113477
0.113264
0.11304
0.112807
0.112566
0.112317
0.112059
0.111791
0.111513
0.111221
0.110917
0.110607
0.110293
0.109973
0.109646
0.109313
0.108974
0.108631
0.10828
0.107921
0.107555
0.107178
0.106799
0.106413
0.10602
0.105619
0.105208
0.104788
0.104365
0.103931
0.103485
0.103025
0.102553
0.10207
0.101578
0.101085
0.100609
0.100199
0.0999655
0.114838
0.114642
0.114434
0.114216
0.113991
0.113756
0.113515
0.113264
0.113005
0.112736
0.112454
0.112157
0.111855
0.111548
0.111237
0.110919
0.110594
0.110263
0.109928
0.109585
0.109235
0.108877
0.10851
0.108139
0.107761
0.107375
0.106981
0.106577
0.106165
0.105749
0.105323
0.104884
0.104432
0.103967
0.10349
0.103005
0.102518
0.102049
0.101647
0.101428
0.115967
0.115776
0.115575
0.115364
0.115145
0.114917
0.114683
0.11444
0.114189
0.113928
0.113655
0.113367
0.113074
0.112775
0.112472
0.112162
0.111845
0.111522
0.111194
0.11086
0.110518
0.110169
0.109812
0.109449
0.109079
0.1087
0.108313
0.107917
0.107513
0.107105
0.106687
0.106256
0.105811
0.105354
0.104885
0.104407
0.103927
0.103464
0.103069
0.102864
0.117066
0.116881
0.116686
0.116481
0.116269
0.116049
0.115822
0.115587
0.115343
0.115091
0.114826
0.114547
0.114262
0.113972
0.113677
0.113375
0.113066
0.112751
0.11243
0.112105
0.111773
0.111432
0.111084
0.110729
0.110367
0.109996
0.109617
0.10923
0.108834
0.108434
0.108024
0.1076
0.107164
0.106715
0.106254
0.105783
0.10531
0.104853
0.104465
0.104272
0.118136
0.117957
0.117768
0.11757
0.117365
0.117151
0.116931
0.116704
0.116468
0.116223
0.115968
0.115698
0.115422
0.115139
0.114853
0.114559
0.114259
0.113952
0.113638
0.113321
0.112998
0.112666
0.112326
0.111979
0.111626
0.111264
0.110893
0.110514
0.110127
0.109735
0.109333
0.108919
0.108491
0.108049
0.107596
0.107133
0.106667
0.106217
0.105835
0.105653
0.119178
0.119004
0.118821
0.11863
0.118431
0.118224
0.118012
0.117791
0.117563
0.117327
0.11708
0.11682
0.116552
0.116278
0.115999
0.115713
0.115422
0.115123
0.114818
0.114509
0.114194
0.113871
0.11354
0.1132
0.112855
0.112502
0.11214
0.11177
0.111392
0.111009
0.110616
0.11021
0.10979
0.109357
0.108912
0.108457
0.107998
0.107554
0.107178
0.107006
0.12019
0.120022
0.119845
0.11966
0.119468
0.119269
0.119063
0.11885
0.118629
0.118402
0.118164
0.117913
0.117653
0.117387
0.117115
0.116839
0.116556
0.116266
0.115969
0.115667
0.115361
0.115047
0.114724
0.114394
0.114057
0.113712
0.11336
0.112998
0.11263
0.112257
0.111872
0.111474
0.111063
0.110638
0.110201
0.109754
0.109302
0.108865
0.108494
0.108331
0.121175
0.121012
0.120841
0.120663
0.120477
0.120285
0.120086
0.11988
0.119667
0.119447
0.119218
0.118978
0.118726
0.118468
0.118203
0.117936
0.117662
0.11738
0.117092
0.116798
0.1165
0.116195
0.115881
0.115559
0.11523
0.114895
0.114551
0.114199
0.113843
0.113477
0.113101
0.112711
0.112309
0.111893
0.111464
0.111025
0.11058
0.110149
0.109783
0.109627
0.122131
0.121974
0.121809
0.121637
0.121458
0.121272
0.12108
0.120882
0.120676
0.120464
0.120244
0.120013
0.11977
0.11952
0.119264
0.119004
0.118739
0.118466
0.118186
0.117901
0.117611
0.117314
0.117009
0.116697
0.116377
0.11605
0.115715
0.115373
0.115027
0.11467
0.114302
0.113921
0.113527
0.11312
0.112699
0.112268
0.111831
0.111406
0.111045
0.110894
0.12306
0.122909
0.12275
0.122584
0.122411
0.122232
0.122047
0.121856
0.121658
0.121453
0.121241
0.121019
0.120785
0.120544
0.120296
0.120045
0.119787
0.119524
0.119253
0.118975
0.118693
0.118405
0.11811
0.117806
0.117495
0.117177
0.116852
0.116521
0.116183
0.115835
0.115475
0.115103
0.114718
0.114319
0.113908
0.113484
0.113055
0.112635
0.112278
0.112131
0.123961
0.123816
0.123663
0.123503
0.123337
0.123164
0.122986
0.122802
0.122611
0.122414
0.12221
0.121997
0.121773
0.12154
0.121301
0.121056
0.120808
0.120553
0.120291
0.120023
0.119749
0.119469
0.119183
0.118888
0.118586
0.118278
0.117962
0.117642
0.117312
0.116973
0.116622
0.116258
0.115882
0.115491
0.115088
0.114673
0.11425
0.113837
0.113483
0.113338
0.124836
0.124696
0.124549
0.124395
0.124236
0.12407
0.123898
0.123721
0.123538
0.123348
0.123152
0.122948
0.122735
0.122509
0.122278
0.122041
0.121802
0.121556
0.121302
0.121043
0.120777
0.120506
0.120228
0.119943
0.11965
0.119351
0.119044
0.118734
0.118413
0.118083
0.11774
0.117386
0.117018
0.116636
0.11624
0.115833
0.115417
0.115009
0.114657
0.114514
0.125685
0.12555
0.125409
0.125261
0.125108
0.124949
0.124784
0.124614
0.124437
0.124255
0.124067
0.123871
0.123667
0.123451
0.123228
0.123
0.122768
0.122531
0.122287
0.122036