/*--------------------------------*- C++ -*----------------------------------*\
| =========                 |                                                 |
| \\      /  F ield         | OpenFOAM: The Open Source CFD Toolbox           |
|  \\    /   O peration     | Version:  3.0.1                                 |
|   \\  /    A nd           | Web:      www.OpenFOAM.org                      |
|    \\/     M anipulation  |                                                 |
\*---------------------------------------------------------------------------*/
FoamFile
{
    version     2.0;
    format      ascii;
    class       volScalarField;
    location    "500";
    object      p;
}
// * * * * * * * * * * * * * * * * * * * * * * * * * * * * * * * * * * * * * //

dimensions      [0 2 -2 0 0 0 0];

internalField   nonuniform List<scalar> 
58000
(
0.667466
0.576757
0.440003
0.304328
0.189871
0.0948676
0.019592
-0.0410143
-0.0917803
-0.131335
-0.16437
-0.193217
-0.216491
-0.236022
-0.254241
-0.270293
-0.283256
-0.295025
-0.306386
-0.316625
-0.324929
-0.332504
-0.339996
-0.34708
-0.352903
-0.357492
-0.36213
-0.366708
-0.370898
-0.374172
-0.376683
-0.379395
-0.382202
-0.384875
-0.38714
-0.387662
-0.383821
-0.378482
-0.376089
-0.377462
0.529556
0.517473
0.485964
0.433813
0.367781
0.294126
0.221519
0.150746
0.0862766
0.0301005
-0.0202657
-0.0639455
-0.100128
-0.131681
-0.159688
-0.183263
-0.203434
-0.221479
-0.237697
-0.251787
-0.264012
-0.275146
-0.285333
-0.294571
-0.302423
-0.309555
-0.316151
-0.322158
-0.327556
-0.332075
-0.33623
-0.340071
-0.343498
-0.346405
-0.348553
-0.349935
-0.350518
-0.351248
-0.35345
-0.357821
0.408526
0.409401
0.399583
0.374792
0.337034
0.28855
0.233777
0.1776
0.120665
0.0682843
0.0200013
-0.0245585
-0.0630968
-0.0962391
-0.126353
-0.152862
-0.175264
-0.194943
-0.212865
-0.228899
-0.242717
-0.25485
-0.26599
-0.276269
-0.285418
-0.293234
-0.300327
-0.306879
-0.312904
-0.31826
-0.322794
-0.326862
-0.330551
-0.333838
-0.336644
-0.338865
-0.340573
-0.341945
-0.343304
-0.344706
0.342166
0.347374
0.347801
0.339177
0.320629
0.292289
0.255606
0.213894
0.168115
0.122549
0.0777185
0.034441
-0.00467137
-0.0398481
-0.0725083
-0.101557
-0.126665
-0.149135
-0.169622
-0.187823
-0.203622
-0.217698
-0.230588
-0.242341
-0.252667
-0.261713
-0.269985
-0.277566
-0.28445
-0.290476
-0.295757
-0.300546
-0.304865
-0.30869
-0.311953
-0.314712
-0.317123
-0.319267
-0.321273
-0.323292
0.286452
0.291776
0.294991
0.293106
0.284743
0.269052
0.245502
0.216564
0.181918
0.145034
0.106885
0.068084
0.0312788
-0.00283878
-0.0354176
-0.0652823
-0.0915831
-0.115398
-0.137352
-0.157107
-0.174385
-0.189784
-0.203921
-0.216854
-0.228339
-0.238352
-0.247499
-0.255887
-0.263524
-0.270298
-0.276194
-0.281535
-0.286369
-0.290695
-0.294485
-0.29775
-0.300652
-0.303227
-0.305457
-0.30738
0.246551
0.251058
0.2547
0.255386
0.251902
0.243337
0.228436
0.208816
0.183517
0.154875
0.123834
0.09079
0.0579937
0.0265289
-0.00438106
-0.0335262
-0.0598128
-0.0840487
-0.106688
-0.127302
-0.145536
-0.161928
-0.177058
-0.190929
-0.203293
-0.214128
-0.22406
-0.233179
-0.241481
-0.248851
-0.2553
-0.261165
-0.266486
-0.271264
-0.27547
-0.27913
-0.28241
-0.285328
-0.287837
-0.290024
0.214425
0.218165
0.221539
0.22308
0.221874
0.217179
0.207621
0.194308
0.175991
0.154139
0.129515
0.102216
0.0739652
0.0460125
0.0178013
-0.00958174
-0.0348807
-0.058639
-0.0811711
-0.102005
-0.12068
-0.137617
-0.153358
-0.167866
-0.180898
-0.192372
-0.202922
-0.212631
-0.221487
-0.22939
-0.236324
-0.242645
-0.248392
-0.253569
-0.258156
-0.262167
-0.265765
-0.268966
-0.27171
-0.274089
0.188721
0.191688
0.194539
0.196186
0.195959
0.193298
0.186958
0.177734
0.164355
0.147699
0.128331
0.106125
0.0822904
0.0580462
0.0329755
0.00797615
-0.0156691
-0.0382924
-0.0600845
-0.0805514
-0.099161
-0.116216
-0.132197
-0.147023
-0.160452
-0.172346
-0.183328
-0.193466
-0.202738
-0.211049
-0.218369
-0.225057
-0.231151
-0.236655
-0.241549
-0.245842
-0.249699
-0.253133
-0.256086
-0.258668
0.16753
0.169855
0.172171
0.173638
0.173766
0.172144
0.167716
0.161091
0.151106
0.138266
0.122977
0.104975
0.0850552
0.064309
0.0423966
0.0200065
-0.00163574
-0.022708
-0.0433145
-0.0629727
-0.0811113
-0.0979188
-0.113807
-0.128655
-0.142227
-0.154331
-0.16556
-0.175964
-0.185512
-0.194114
-0.201718
-0.208685
-0.215047
-0.220805
-0.225943
-0.230464
-0.234529
-0.238151
-0.241275
-0.244029
0.149816
0.151602
0.153428
0.154618
0.154809
0.153695
0.150406
0.145428
0.137748
0.127654
0.115439
0.100772
0.0841425
0.066482
0.0474975
0.0276855
0.00815729
-0.0111647
-0.0303266
-0.048881
-0.0662483
-0.0825203
-0.0980399
-0.112656
-0.126144
-0.138261
-0.149561
-0.160075
-0.16976
-0.178531
-0.186317
-0.19347
-0.200018
-0.205958
-0.211274
-0.215963
-0.220183
-0.223948
-0.227205
-0.230099
0.134798
0.136139
0.137539
0.138436
0.138558
0.137673
0.135065
0.131139
0.125029
0.116904
0.106973
0.0948936
0.0809443
0.0658998
0.0494977
0.032076
0.0146069
-0.00292768
-0.020538
-0.0378245
-0.0542249
-0.0697575
-0.0847031
-0.0988883
-0.112101
-0.124063
-0.135278
-0.145762
-0.155458
-0.164284
-0.172156
-0.179409
-0.186063
-0.192112
-0.197542
-0.202344
-0.206668
-0.210532
-0.213885
-0.216883
0.121924
0.122896
0.123933
0.124556
0.124555
0.123753
0.121556
0.11831
0.113283
0.106574
0.0983404
0.0882495
0.0764466
0.0635671
0.0493728
0.0340797
0.01852
0.0027068
-0.0133517
-0.0293089
-0.0446381
-0.0593041
-0.0735353
-0.0871454
-0.0999374
-0.111606
-0.122607
-0.132938
-0.142535
-0.151319
-0.159188
-0.166459
-0.173145
-0.179237
-0.18472
-0.189581
-0.193964
-0.197884
-0.201294
-0.204361
0.110781
0.11145
0.11218
0.112557
0.112419
0.111624
0.109678
0.106881
0.102612
0.096934
0.0899681
0.0814066
0.0713101
0.0601996
0.0478601
0.0344176
0.0205747
0.00635698
-0.00822086
-0.0228629
-0.0370856
-0.0508204
-0.0642536
-0.077194
-0.0894609
-0.100734
-0.111418
-0.121499
-0.130905
-0.13956
-0.147347
-0.154565
-0.161217
-0.167291
-0.172774
-0.177646
-0.182043
-0.185979
-0.18941
-0.192512
0.101058
0.101475
0.101949
0.102111
0.101839
0.101015
0.0992246
0.0967315
0.0930047
0.088089
0.0820809
0.0747024
0.0659642
0.0562946
0.0454987
0.0336398
0.0213078
0.00853136
-0.0046734
-0.0180599
-0.0311925
-0.0439811
-0.0565783
-0.0687954
-0.0804683
-0.0912731
-0.101567
-0.111322
-0.120464
-0.128918
-0.136559
-0.143661
-0.150222
-0.156227
-0.16166
-0.1665
-0.170871
-0.174788
-0.178207
-0.181313
0.0925151
0.092723
0.0929809
0.0929601
0.0925646
0.0916973
0.0900055
0.0877234
0.0843942
0.0800532
0.0747791
0.0683249
0.0606728
0.0521772
0.0426622
0.0321488
0.021131
0.0096356
-0.00232254
-0.0145392
-0.0266281
-0.0384895
-0.0502479
-0.0617206
-0.0727612
-0.0830506
-0.0929028
-0.102279
-0.111101
-0.1193
-0.126741
-0.133676
-0.140099
-0.14599
-0.151333
-0.156101
-0.160412
-0.164276
-0.167655
-0.170736
0.0849623
0.0849966
0.0850742
0.084898
0.0843936
0.0834788
0.0818513
0.0797209
0.0766908
0.0727923
0.0680905
0.0623671
0.0555904
0.0480555
0.0396042
0.0302311
0.0203505
0.00998392
-0.000856642
-0.0120022
-0.0231132
-0.0340872
-0.0450267
-0.055759
-0.0661548
-0.0759039
-0.0852819
-0.0942432
-0.102707
-0.110608
-0.117809
-0.124537
-0.130782
-0.136522
-0.141739
-0.146405
-0.150625
-0.154409
-0.157721
-0.160751
0.0782491
0.0781391
0.0780659
0.077759
0.0771606
0.0762004
0.0746172
0.0725997
0.069801
0.0662507
0.0620034
0.0568666
0.0508025
0.0440596
0.0364962
0.0280901
0.0191903
0.00981309
-3.30647e-05
-0.0102086
-0.0204165
-0.0305565
-0.0407131
-0.0507262
-0.0604821
-0.0696832
-0.0785703
-0.0870946
-0.0951746
-0.102748
-0.109679
-0.11617
-0.122207
-0.127766
-0.132828
-0.137363
-0.141467
-0.145149
-0.148372
-0.15133
0.0722532
0.0720234
0.0718245
0.0714083
0.0707305
0.06973
0.0681795
0.0662499
0.0636353
0.060365
0.0564856
0.0518269
0.0463496
0.0402656
0.0334477
0.0258642
0.017811
0.00929936
0.00033392
-0.0089697
-0.0183515
-0.0277167
-0.037136
-0.0464614
-0.0555937
-0.0642509
-0.0726435
-0.0807214
-0.0884034
-0.0956313
-0.10227
-0.108501
-0.114306
-0.119662
-0.124547
-0.128931
-0.132899
-0.136459
-0.139575
-0.142443
0.0668754
0.0665461
0.0662424
0.0657356
0.0649918
0.0639574
0.0624333
0.0605751
0.0581112
0.0550711
0.0514949
0.0472319
0.0422441
0.0367138
0.0305268
0.0236465
0.0163256
0.00857135
0.000385099
-0.00813742
-0.0167682
-0.025419
-0.0341504
-0.0428259
-0.0513591
-0.0594859
-0.0673902
-0.0750216
-0.0823007
-0.0891727
-0.0955054
-0.101461
-0.10702
-0.112155
-0.116847
-0.121062
-0.124879
-0.128301
-0.131297
-0.134059
0.0620339
0.0616222
0.0612314
0.0606499
0.0598521
0.0587905
0.0572899
0.0554922
0.0531551
0.0503083
0.0469865
0.043056
0.0384817
0.0334214
0.0277727
0.0214974
0.0148126
0.00772209
0.000225605
-0.00759778
-0.015548
-0.0235438
-0.0316375
-0.0397042
-0.0476682
-0.0552845
-0.0627135
-0.0699053
-0.0767834
-0.0832964
-0.0893166
-0.0949888
-0.100291
-0.105194
-0.10968
-0.113715
-0.117368
-0.120642
-0.123506
-0.126151
0.0576602
0.0571806
0.0567178
0.0560753
0.0552341
0.0541521
0.0526739
0.0509296
0.0487017
0.0460204
0.0429158
0.0392688
0.0350478
0.0303906
0.0252052
0.019454
0.0133242
0.00681743
-6.76375e-05
-0.00726494
-0.0145994
-0.0219968
-0.0295021
-0.0370012
-0.0444284
-0.0515575
-0.0585289
-0.0652934
-0.0717776
-0.077934
-0.0836401
-0.0890247
-0.094064
-0.0987298
-0.103003
-0.106849
-0.11033
-0.113447
-0.116171
-0.118691
0.0536968
0.0531617
0.0526398
0.051948
0.0510728
0.0499765
0.048521
0.0468253
0.0446937
0.0421567
0.0392403
0.0358384
0.0319228
0.0276148
0.0228315
0.0175372
0.0118949
0.005904
-0.000437596
-0.00707397
-0.0138514
-0.0207022
-0.027666
-0.0346385
-0.0415625
-0.04823
-0.054764
-0.0611166
-0.0672183
-0.0730249
-0.0784197
-0.083517
-0.0882922
-0.0927176
-0.0967736
-0.100426
-0.10373
-0.106686
-0.109264
-0.111652
0.0500951
0.049515
0.0489448
0.0482139
0.0473129
0.046208
0.0447759
0.0431259
0.041081
0.0386717
0.035921
0.0327338
0.0290854
0.025083
0.0206519
0.0157587
0.0105468
0.00501403
-0.000842467
-0.00697526
-0.0132484
-0.0196007
-0.026067
-0.0325525
-0.0390067
-0.0452391
-0.0513575
-0.057316
-0.0630491
-0.0685158
-0.0736053
-0.078419
-0.082932
-0.0871171
-0.090955
-0.0944119
-0.0975364
-0.100327
-0.102758
-0.10501
0.0468137
0.0461975
0.0455886
0.0448273
0.0439075
0.0427991
0.0413917
0.0397854
0.0378199
0.0355255
0.0329224
0.0299255
0.0265132
0.0227808
0.0186607
0.0141224
0.00929271
0.00416834
-0.00125374
-0.006933
-0.0127492
-0.0186469
-0.0246564
-0.0306917
-0.0367088
-0.0425325
-0.0482578
-0.0538413
-0.0592213
-0.0643599
-0.0691523
-0.0736887
-0.077944
-0.0818915
-0.0855124
-0.0887738
-0.0917185
-0.0943441
-0.0966255
-0.0987403
0.043817
0.0431726
0.042533
0.0417487
0.0408166
0.0397091
0.0383276
0.0367637
0.0348721
0.0326823
0.0302124
0.0273857
0.024184
0.0206922
0.0168489
0.0126267
0.00813821
0.00337973
-0.00165183
-0.00692155
-0.0123228
-0.017805
-0.023395
-0.0290148
-0.0346252
-0.0400661
-0.0454212
-0.0506493
-0.0556927
-0.0605163
-0.0650218
-0.0692889
-0.0732928
-0.0770074
-0.0804146
-0.0834828
-0.0862494
-0.088711
-0.0908442
-0.0928217
0.0410746
0.0404085
0.0397451
0.0389444
0.0380052
0.0369029
0.0355483
0.0340261
0.0322038
0.0301102
0.0277615
0.0250888
0.0220765
0.0188007
0.0152058
0.0112669
0.00708488
0.00265578
-0.00202326
-0.00692195
-0.0119453
-0.0170476
-0.0222522
-0.0274881
-0.0327209
-0.0378039
-0.042811
-0.0477034
-0.0524271
-0.0569499
-0.0611796
-0.0651867
-0.0689471
-0.0724351
-0.0756337
-0.0785123
-0.081104
-0.0834045
-0.0853916
-0.0872334
0.0385598
0.0378778
0.0371966
0.036385
0.0354435
0.0343497
0.0330232
0.031542
0.0297853
0.0277812
0.0255439
0.0230114
0.0201707
0.0170904
0.0137197
0.0100366
0.00613134
0.00200014
-0.00235951
-0.00692096
-0.0115995
-0.0163534
-0.0212035
-0.0260849
-0.0309669
-0.0357158
-0.0403965
-0.0449725
-0.0493936
-0.0536301
-0.0575959
-0.0613534
-0.064879
-0.068148
-0.0711442
-0.0738384
-0.0762595
-0.0784027
-0.0802472
-0.0819558
0.0362495
0.0355565
0.0348627
0.034045
0.0331052
0.0320229
0.0307256
0.0292849
0.0275909
0.0256704
0.0235363
0.0211327
0.0184486
0.0155462
0.0123794
0.00892823
0.00527422
0.00141365
-0.00265545
-0.00690939
-0.0112724
-0.0157065
-0.0202299
-0.0247836
-0.0293401
-0.0337771
-0.038152
-0.0424304
-0.0465659
-0.0505308
-0.0542451
-0.0577637
-0.0610641
-0.0641225
-0.0669234
-0.0694391
-0.071695
-0.0736858
-0.075392
-0.0769711
0.0341234
0.0334237
0.0327217
0.0319022
0.0309675
0.0298993
0.0286321
0.0272317
0.0255977
0.0237561
0.0217183
0.0194337
0.0168936
0.014154
0.0111733
0.00793377
0.004509
0.000895496
-0.00290829
-0.00688103
-0.0109546
-0.0150946
-0.0193168
-0.0235673
-0.0278213
-0.0319674
-0.0360561
-0.0400552
-0.0439214
-0.0476293
-0.0511044
-0.0543955
-0.0574806
-0.0603372
-0.0629506
-0.0652947
-0.0673913
-0.0692354
-0.0708082
-0.0722622
0.0321637
0.031461
0.0307548
0.0299368
0.0290104
0.0279585
0.0267221
0.0253617
0.0237856
0.0220188
0.0200711
0.0178974
0.0154903
0.0129007
0.0100908
0.00704511
0.00383047
0.000443417
-0.00311723
-0.00683207
-0.0106396
-0.0145085
-0.0184524
-0.0224222
-0.0263953
-0.03027
-0.0340911
-0.0378282
-0.0414408
-0.044906
-0.0481545
-0.0512293
-0.0541094
-0.0567734
-0.0592075
-0.0613871
-0.0633312
-0.0650345
-0.0664797
-0.0678133
0.0303546
0.0296521
0.0289449
0.0281317
0.027216
0.0261824
0.0249775
0.0236567
0.0221367
0.0204409
0.0185783
0.0165081
0.0142245
0.0117737
0.0091215
0.00625429
0.00323284
5.39764e-05
-0.00328308
-0.00676065
-0.0103231
-0.0139415
-0.0176282
-0.0213376
-0.0250496
-0.0286712
-0.0322419
-0.0357333
-0.0391078
-0.042344
-0.0453781
-0.0482479
-0.0509333
-0.0534141
-0.0556774
-0.0577
-0.0594986
-0.0610676
-0.062391
-0.0636097
0.0286822
0.0279826
0.0272775
0.0264716
0.0255688
0.0245551
0.0233821
0.0221008
0.020635
0.0190071
0.017225
0.015252
0.0130836
0.0107618
0.00825561
0.00555336
0.00271023
-0.000276624
-0.00340748
-0.00666614
-0.0100021
-0.013389
-0.0168371
-0.020305
-0.0237741
-0.0271594
-0.0304961
-0.0337573
-0.036908
-0.0399288
-0.0427604
-0.0454362
-0.0479372
-0.0502444
-0.0523454
-0.0542188
-0.0558789
-0.0573204
-0.0585282
-0.0596374
0.0271341
0.0264398
0.0257392
0.0249429
0.024055
0.0230625
0.0219218
0.0206796
0.0192664
0.0177034
0.0159979
0.0141164
0.0120558
0.00985438
0.007484
0.00493469
0.00225673
-0.000552378
-0.00349251
-0.00654871
-0.00967505
-0.0128472
-0.0160742
-0.0193176
-0.0225606
-0.0257254
-0.0288432
-0.0318887
-0.0348296
-0.0376476
-0.0402883
-0.042781
-0.0451078
-0.0472506
-0.049198
-0.0509299
-0.0524589
-0.0537796
-0.0548779
-0.0558836
0.0256992
0.0250124
0.0243184
0.0235337
0.0226621
0.0216921
0.0205838
0.0193804
0.0180184
0.0165177
0.014885
0.0130901
0.0111307
0.00904196
0.00679832
0.00439126
0.00186672
-0.000777435
-0.00354077
-0.00640932
-0.00934115
-0.012314
-0.0153354
-0.01837
-0.0214024
-0.0243614
-0.0272744
-0.0301181
-0.032862
-0.0354896
-0.0379505
-0.0402706
-0.042433
-0.0444207
-0.0462229
-0.0478211
-0.0492261
-0.0504328
-0.0514281
-0.0523361
0.0243678
0.0236901
0.0230047
0.0222331
0.0213793
0.0204325
0.0193569
0.0181918
0.0168795
0.0154388
0.0138756
0.0121627
0.0102989
0.00831586
0.00619082
0.00391647
0.00153475
-0.000955993
-0.00355497
-0.00624918
-0.00900037
-0.0117878
-0.0146179
-0.0174581
-0.0202941
-0.0230609
-0.0257825
-0.028437
-0.0309964
-0.0334451
-0.0357368
-0.0378945
-0.0399021
-0.0417435
-0.0434089
-0.044881
-0.0461692
-0.0472687
-0.0481673
-0.0489833
0.0231309
0.0224639
0.0217887
0.0210316
0.0201965
0.0192738
0.0182309
0.0171038
0.0158399
0.0144569
0.0129601
0.0113252
0.00955151
0.00766813
0.00565434
0.00350394
0.00125563
-0.00109206
-0.00353804
-0.00606999
-0.00865284
-0.0112676
-0.0139195
-0.0165786
-0.0192313
-0.0218184
-0.0243609
-0.0268385
-0.0292248
-0.0315057
-0.0336386
-0.0356435
-0.0375054
-0.0392093
-0.0407459
-0.0420993
-0.0432778
-0.0442766
-0.0450846
-0.0458145
0.0219807
0.0213257
0.0206619
0.0199205
0.0191052
0.018207
0.0171967
0.016107
0.0148902
0.0135629
0.0121299
0.0105692
0.00888088
0.0070914
0.00518205
0.00314794
0.00102439
-0.00118968
-0.00349275
-0.00587333
-0.00829937
-0.0107531
-0.0132387
-0.0157287
-0.0182104
-0.0206295
-0.0230045
-0.0253162
-0.0275406
-0.0296642
-0.0316478
-0.0335092
-0.0352343
-0.0368089
-0.0382246
-0.0394666
-0.0405422
-0.0414468
-0.0421702
-0.0428195
0.02091
0.020268
0.0196169
0.0188921
0.0180972
0.0172241
0.0162462
0.0151935
0.0140226
0.0127489
0.011377
0.00988719
0.00827971
0.00657895
0.00476805
0.00284304
0.000836454
-0.00125241
-0.00342197
-0.00566122
-0.00794065
-0.010244
-0.0125744
-0.0149065
-0.0172283
-0.0194903
-0.0217084
-0.0238651
-0.0259376
-0.0279137
-0.0297574
-0.0314842
-0.0330808
-0.0345342
-0.0358365
-0.0369741
-0.0379533
-0.0387701
-0.0394146
-0.0399888
0.0199122
0.0192843
0.0186468
0.0179394
0.0171655
0.0163177
0.015372
0.0143558
0.0132295
0.0120077
0.0106946
0.00927223
0.00774156
0.00612471
0.00440663
0.00258433
0.000687617
-0.00128394
-0.00332836
-0.00543533
-0.0075778
-0.00974044
-0.0119258
-0.0141102
-0.0162826
-0.0183975
-0.020469
-0.0224803
-0.0244108
-0.0262487
-0.0279611
-0.0295616
-0.0310379
-0.0323777
-0.0335738
-0.0346137
-0.035503
-0.0362377
-0.0368091
-0.0373135
0.0189817
0.0183686
0.0177455
0.0170562
0.0163037
0.0154814
0.0145676
0.0135872
0.0125044
0.0113327
0.0100759
0.00871812
0.00726035
0.00572304
0.00409279
0.00236723
0.00057385
-0.00128743
-0.00321459
-0.00519768
-0.00721178
-0.00924278
-0.0112924
-0.0133387
-0.0153713
-0.0173484
-0.0192825
-0.0211579
-0.0229552
-0.0246638
-0.0262532
-0.0277354
-0.0290989
-0.0303325
-0.0314293
-0.032378
-0.0331833
-0.0338418
-0.0343453
-0.034785
0.0181131
0.0175154
0.0169075
0.0162366
0.0155058
0.0147091
0.0138268
0.0128817
0.0118412
0.0107179
0.00951525
0.00821904
0.00683072
0.00536899
0.00382179
0.00218756
0.000491556
-0.00126611
-0.00308306
-0.00494992
-0.00684378
-0.00875132
-0.0106738
-0.0125908
-0.0144924
-0.0163407
-0.0181461
-0.0198941
-0.0215669
-0.0231543
-0.0246285
-0.0259999
-0.027258
-0.0283922
-0.0293963
-0.0302598
-0.0309871
-0.0315749
-0.0320155
-0.0323955
0.0173016
0.0167198
0.0161276
0.0154756
0.0147667
0.0139955
0.0131443
0.0122337
0.0112343
0.0101578
0.00900717
0.00776997
0.00644783
0.00505787
0.00358946
0.00204151
0.000437327
-0.00122266
-0.00293607
-0.00469384
-0.00647475
-0.00826652
-0.0100698
-0.0118656
-0.0136447
-0.0153721
-0.017057
-0.0186859
-0.0202419
-0.0217159
-0.0230823
-0.0243502
-0.0255096
-0.026551
-0.0274685
-0.0282528
-0.0289075
-0.0294298
-0.0298124
-0.0301371
0.0165427
0.0159773
0.0154011
0.0147683
0.0140815
0.0133357
0.012515
0.0116383
0.0106788
0.00964738
0.00854694
0.00736624
0.00610723
0.00478561
0.00339187
0.00192558
0.000408123
-0.00115985
-0.0027757
-0.0044309
-0.00610581
-0.00778889
-0.00948034
-0.0111626
-0.0128269
-0.014441
-0.0160131
-0.0175302
-0.018977
-0.0203449
-0.0216104
-0.0227814
-0.0238487
-0.0248034
-0.0256404
-0.0263509
-0.0269383
-0.0273999
-0.0277292
-0.0280029
0.0158325
0.0152837
0.014724
0.0141105
0.0134457
0.0127252
0.0119345
0.0110909
0.0101701
0.00918237
0.00813017
0.00700366
0.00580492
0.00454833
0.00322557
0.00183655
0.000401074
-0.00108
-0.002604
-0.0041627
-0.00573792
-0.00731892
-0.00890542
-0.0104812
-0.0120377
-0.0135457
-0.0150119
-0.0164246
-0.0177691
-0.0190376
-0.0202088
-0.0212893
-0.0222705
-0.0231446
-0.0239065
-0.0245485
-0.0250734
-0.025479
-0.0257591
-0.0259861
0.0151674
0.0146354
0.0140924
0.0134983
0.0128555
0.0121599
0.0113987
0.0105874
0.00970434
0.00875868
0.00775296
0.0066784
0.00553723
0.00434265
0.00308727
0.00177153
0.000413618
-0.000985427
-0.00242275
-0.00389057
-0.00537209
-0.0068571
-0.00834503
-0.00982077
-0.0112763
-0.0126847
-0.0140519
-0.0153664
-0.0166154
-0.0177911
-0.0188739
-0.0198698
-0.020771
-0.0215697
-0.0222618
-0.0228401
-0.0233073
-0.0236612
-0.0238962
-0.0240803
0.014544
0.014029
0.0135028
0.0129281
0.0123071
0.0116363
0.0109039
0.0101243
0.00927764
0.0083727
0.00741174
0.00638701
0.00530085
0.00416535
0.00297412
0.00172785
0.000443357
-0.000878101
-0.00223368
-0.00361589
-0.0050091
-0.00640385
-0.00779918
-0.00918102
-0.0105418
-0.0118568
-0.0131309
-0.0143539
-0.0155133
-0.0166021
-0.0176024
-0.0185194
-0.0193457
-0.0200744
-0.0207016
-0.0212209
-0.0216346
-0.0219409
-0.0221346
-0.0222794
0.0139594
0.0134612
0.0129519
0.0123966
0.0117973
0.0111508
0.0104468
0.00969796
0.00888673
0.00802111
0.00710325
0.00612632
0.00509274
0.00401364
0.00288339
0.00170307
0.000488165
-0.000759956
-0.0020383
-0.00333974
-0.00464982
-0.0059596
-0.00726786
-0.00856151
-0.00983329
-0.0110607
-0.0122478
-0.0133847
-0.0144604
-0.015468
-0.0163912
-0.0172345
-0.0179911
-0.0186546
-0.0192215
-0.0196861
-0.0200504
-0.0203129
-0.0204686
-0.0205775
0.0134106
0.0129294
0.012437
0.0119009
0.0113231
0.0107006
0.0100242
0.00930545
0.00852854
0.0077009
0.00682452
0.00589346
0.00491016
0.00388485
0.00281271
0.00169499
0.000546042
-0.000632609
-0.00183803
-0.00306329
-0.00429496
-0.00552475
-0.00675112
-0.00796192
-0.0091502
-0.0102954
-0.0114008
-0.0124574
-0.0134546
-0.0143862
-0.0152375
-0.016012
-0.0167035
-0.0173065
-0.0178174
-0.0182313
-0.01855
-0.0187721
-0.0188933
-0.0189693
0.0128951
0.0124308
0.0119553
0.0114383
0.0108817
0.0102828
0.00963336
0.0089439
0.00820026
0.00740927
0.00657285
0.00568579
0.00475059
0.00377666
0.0027598
0.00170158
0.000615202
-0.000497711
-0.00163413
-0.00278748
-0.00394529
-0.00509967
-0.006249
-0.00738193
-0.00849181
-0.00955985
-0.0105887
-0.0115698
-0.0124937
-0.0133544
-0.0141383
-0.0148487
-0.0154798
-0.0160263
-0.0164854
-0.0168523
-0.0171289
-0.0173141
-0.0174035
-0.0174497
0.0124107
0.0119631
0.0115043
0.0110062
0.0104705
0.00989474
0.00927165
0.00861073
0.00789931
0.00714372
0.00634576
0.00550093
0.00461174
0.00368683
0.0027227
0.001721
0.000693977
-0.000356618
-0.00142782
-0.00251326
-0.00360134
-0.00468472
-0.00576152
-0.00682121
-0.00785747
-0.00885308
-0.00981007
-0.0107207
-0.0115759
-0.0123703
-0.0130914
-0.0137419
-0.0143166
-0.0148108
-0.0152217
-0.0155453
-0.0157831
-0.0159342
-0.0159948
-0.0160137
0.0119551
0.0115241
0.0110819
0.0106024
0.0100872
0.00953415
0.00893675
0.00830358
0.00762335
0.00690191
0.00614098
0.00533667
0.0044915
0.00361345
0.00269951
0.00175157
0.000780899
-0.000210687
-0.00122012
-0.00224138
-0.00326372
-0.00428014
-0.00528866
-0.00627947
-0.00724657
-0.00817418
-0.00906388
-0.00990833
-0.0106993
-0.0114317
-0.0120941
-0.0126888
-0.0132112
-0.0136566
-0.0140229
-0.0143064
-0.0145084
-0.0146284
-0.0146626
-0.0146567
0.0115262
0.0111116
0.0106858
0.0102248
0.00972969
0.00919887
0.00862646
0.00802027
0.00737023
0.00668174
0.00595643
0.00519101
0.00438797
0.00355465
0.0026886
0.00179175
0.000874584
-6.10004e-05
-0.00101201
-0.00197263
-0.00293286
-0.00388617
-0.00483039
-0.00575641
-0.00665854
-0.00752231
-0.00834884
-0.00913145
-0.00986229
-0.0105367
-0.0111443
-0.0116871
-0.0121605
-0.0125609
-0.0128858
-0.0131322
-0.0133014
-0.0133927
-0.0134029
-0.0133744
0.0111224
0.0107239
0.0103143
0.00987128
0.00939598
0.00888688
0.00833881
0.00775882
0.00713797
0.00648125
0.00579023
0.00506212
0.00429939
0.00350883
0.00268839
0.00184017
0.000973823
9.13058e-05
-0.000804332
-0.00170762
-0.00260926
-0.00350301
-0.00438668
-0.00525175
-0.00609281
-0.00689664
-0.00766401
-0.00838853
-0.00906318
-0.0096834
-0.0102398
-0.0107341
-0.0111623
-0.0115206
-0.0118072
-0.0120194
-0.0121582
-0.0122234
-0.0122116
-0.0121627
0.0107419
0.0103592
0.00996559
0.00954022
0.00908428
0.00859637
0.00807195
0.00751738
0.00692476
0.00629867
0.00564063
0.00494832
0.00422418
0.00347444
0.00269754
0.00189556
0.00107748
0.00024534
-0.000597911
-0.00144699
-0.00229324
-0.00313084
-0.00395747
-0.0047652
-0.00554888
-0.0062964
-0.0070082
-0.00767846
-0.0083004
-0.00886997
-0.00937872
-0.00982786
-0.0102137
-0.0105332
-0.0107843
-0.0109649
-0.0110759
-0.0111169
-0.0110853
-0.0110178
0.010383
0.0100159
0.00963796
0.00922994
0.00879289
0.00832565
0.0078242
0.00729429
0.00672893
0.00613236
0.00550606
0.00484808
0.00416086
0.00345016
0.00271471
0.00195676
0.00118455
0.00040017
-0.000393411
-0.00119122
-0.00198519
-0.00276978
-0.00354267
-0.00429646
-0.0050262
-0.00572083
-0.00638056
-0.00699981
-0.00757256
-0.00809485
-0.00855899
-0.00896604
-0.00931275
-0.00959596
-0.00981437
-0.00996571
-0.010051
-0.0100702
-0.0100203
-0.00993608
0.0100444
0.00969252
0.00932997
0.00893888
0.00852029
0.00807318
0.00759402
0.00708799
0.00654895
0.00598083
0.00538505
0.00476001
0.0041081
0.00343467
0.00273881
0.00202271
0.0012941
0.000555081
-0.000191502
-0.000940815
-0.00168535
-0.00241995
-0.00314218
-0.00384518
-0.00452422
-0.0051692
-0.00578001
-0.00635161
-0.00687821
-0.0073563
-0.00777891
-0.0081468
-0.00845692
-0.0087067
-0.0088947
-0.0090191
-0.00908087
-0.00907983
-0.00901357
-0.00891411
0.00972464
0.00938768
0.00904018
0.00866565
0.00826506
0.00783753
0.00737997
0.00689707
0.00638344
0.00584271
0.00527625
0.0046828
0.00406469
0.00342688
0.00276872
0.00209249
0.00140531
0.000709299
7.29632e-06
-0.000696134
-0.00139401
-0.00208138
-0.00275587
-0.00341105
-0.00404243
-0.00464076
-0.00520575
-0.00573256
-0.00621611
-0.00665294
-0.0070367
-0.00736808
-0.00764437
-0.00786297
-0.00802291
-0.00812246
-0.00816251
-0.00814321
-0.00806184
-0.00794875
0.0094225
0.00910008
0.00876731
0.00840894
0.00802586
0.00761737
0.00718074
0.00672022
0.00623109
0.00571672
0.00517844
0.00461527
0.0040295
0.0034257
0.00280353
0.00216522
0.00151743
0.000862263
0.000202453
-0.000457585
-0.00111131
-0.00175411
-0.0023836
-0.00299375
-0.00358033
-0.00413484
-0.00465678
-0.0051418
-0.00558495
-0.0059832
-0.00633082
-0.00662823
-0.00687288
-0.00706275
-0.00719667
-0.0072733
-0.00729352
-0.00725729
-0.00716251
-0.00703701
0.00913679
0.00882856
0.00851016
0.00816751
0.00780149
0.00741148
0.0069951
0.00655622
0.00609071
0.00560171
0.0050905
0.00455635
0.0040015
0.00343022
0.00284233
0.00224014
0.00162978
0.00101334
0.00039357
-0.000225399
-0.000837448
-0.00143816
-0.00202521
-0.00259298
-0.00313742
-0.00365076
-0.00413239
-0.0045781
-0.00498359
-0.00534584
-0.00565963
-0.00592536
-0.00614083
-0.00630387
-0.00641381
-0.00646934
-0.00647124
-0.00641983
-0.00631262
-0.00617614
0.00886645
0.00857199
0.00826761
0.00794027
0.0075908
0.00721871
0.00682193
0.00640396
0.00596122
0.00549661
0.00501138
0.00450505
0.00397978
0.00343953
0.00288437
0.00231654
0.00174175
0.0011621
0.000580209
1.04095e-07
-0.000572492
-0.0011335
-0.00168054
-0.0022084
-0.00271322
-0.00318789
-0.00363164
-0.00404069
-0.0044108
-0.0047394
-0.00502175
-0.00525803
-0.00544617
-0.00558455
-0.00567226
-0.00570834
-0.00569357
-0.00562806
-0.00550993
-0.00536349
0.00861041
0.00832938
0.00803861
0.00772615
0.00739276
0.00703803
0.00666019
0.0062624
0.00584159
0.00540043
0.00494016
0.00446047
0.00396347
0.00345289
0.0029289
0.00239378
0.00185279
0.00130802
0.000762081
0.000218771
-0.000316599
-0.000840083
-0.0013494
-0.00183968
-0.00230725
-0.00274559
-0.00315386
-0.0035284
-0.00386557
-0.00416276
-0.00441569
-0.00462453
-0.0047875
-0.00490284
-0.00497009
-0.00498829
-0.00495812
-0.00488005
-0.00475177
-0.00459661
0.00836776
0.00809974
0.00782222
0.0075242
0.00720639
0.00686846
0.00650891
0.00613061
0.00573089
0.00531228
0.00487595
0.00442177
0.00395182
0.00346953
0.00297529
0.00247126
0.0019624
0.00145076
0.00093886
0.000430358
-6.9762e-05
-0.000557854
-0.00103162
-0.0014865
-0.00191904
-0.00232324
-0.00269816
-0.00304054
-0.00334676
-0.0036146
-0.0038402
-0.00402355
-0.00416295
-0.00425716
-0.00430545
-0.00430718
-0.00426306
-0.0041733
-0.00403621
-0.00387317
0.00813758
0.00788219
0.00761754
0.00733351
0.00703079
0.00670912
0.00636721
0.00600769
0.00562828
0.00523131
0.00481795
0.00438821
0.00394409
0.00348883
0.0030229
0.00254849
0.00207015
0.00158993
0.00111033
0.000634782
0.000167919
-0.000286733
-0.000726963
-0.00114853
-0.00154812
-0.00192024
-0.00226393
-0.00257603
-0.00285345
-0.00309393
-0.00329394
-0.00345354
-0.00357128
-0.00364573
-0.0036766
-0.00366323
-0.00360623
-0.00350616
-0.00336087
-0.00319106
0.00791905
0.00767588
0.00742372
0.00715324
0.00686511
0.00655915
0.00623426
0.00589283
0.00553294
0.00515676
0.00476542
0.00435907
0.00393965
0.00351016
0.00307125
0.00262498
0.00217565
0.00172528
0.00127625
0.000831868
0.000396497
-2.66169e-05
-0.000435234
-0.000825419
-0.00119402
-0.00153601
-0.00185036
-0.00213427
-0.00238462
-0.00259952
-0.00277579
-0.00291335
-0.00301079
-0.00306716
-0.00308191
-0.00305465
-0.00298604
-0.00287636
-0.0027241
-0.00254823
0.00771137
0.00748004
0.00723997
0.0069826
0.00670858
0.00641778
0.0061093
0.00578529
0.00544416
0.00508792
0.00471769
0.00433373
0.00393789
0.00353302
0.00311979
0.00270033
0.00227857
0.00185649
0.00143645
0.00102159
0.000615913
0.000222615
-0.000156204
-0.000516833
-0.000856291
-0.00116999
-0.00145688
-0.00171423
-0.00193942
-0.00213047
-0.00228453
-0.00240155
-0.00248038
-0.00251984
-0.00251982
-0.00247986
-0.00240053
-0.0022825
-0.00212373
-0.00194278
0.00751381
0.00729392
0.00706555
0.00682087
0.00656047
0.0062843
0.00599161
0.00568437
0.00536126
0.00502415
0.00467413
0.00431158
0.00393827
0.00355685
0.00316814
0.00277414
0.00237857
0.00198337
0.00159077
0.00120381
0.000826265
0.000461077
0.000110352
-0.000222445
-0.000534515
-0.000821638
-0.00108272
-0.00131536
-0.00151688
-0.00168567
-0.00181914
-0.00191712
-0.00197849
-0.00200253
-0.00198884
-0.00193724
-0.00184833
-0.00172249
-0.00155832
-0.00137292
0.00732569
0.00711685
0.00689979
0.00666735
0.0064201
0.00615803
0.00588054
0.00558943
0.00528361
0.00496483
0.00463418
0.00429209
0.00394029
0.00358126
0.00321586
0.0028461
0.0024754
0.00210566
0.0017391
0.00137854
0.00102753
0.000688905
0.00036467
5.8065e-05
-0.00022825
-0.000490414
-0.000727363
-0.000936708
-0.00111625
-0.00126429
-0.00137849
-0.00145875
-0.00150415
-0.00151377
-0.00148759
-0.00142537
-0.00132764
-0.00119512
-0.00102591
-0.000836924
0.00714636
0.00694818
0.00674205
0.00652141
0.00628684
0.00603835
0.00577548
0.00549986
0.00521063
0.00490943
0.0045973
0.00427477
0.00394349
0.00360579
0.00326262
0.00291588
0.0025688
0.00222324
0.0018813
0.00154571
0.00121983
0.000906242
0.000606975
0.000325025
6.29151e-05
-0.000175821
-0.000390072
-0.000577774
-0.000736648
-0.000865306
-0.000961666
-0.00102551
-0.00105592
-0.00105243
-0.00101473
-0.000942806
-0.000837249
-0.0006985
-0.000525245
-0.000333206
0.00697522
0.0067873
0.00659171
0.00638246
0.0061601
0.00592469
0.00567585
0.00541512
0.00514179
0.00485741
0.00456302