/*--------------------------------*- C++ -*----------------------------------*\
| =========                 |                                                 |
| \\      /  F ield         | OpenFOAM: The Open Source CFD Toolbox           |
|  \\    /   O peration     | Version:  3.0.1                                 |
|   \\  /    A nd           | Web:      www.OpenFOAM.org                      |
|    \\/     M anipulation  |                                                 |
\*---------------------------------------------------------------------------*/
FoamFile
{
    version     2.0;
    format      ascii;
    class       surfaceScalarField;
    location    "500";
    object      phi;
}
// * * * * * * * * * * * * * * * * * * * * * * * * * * * * * * * * * * * * * //

dimensions      [0 3 -1 0 0 0 0];

internalField   nonuniform List<scalar> 
115520
(
0.00353625
-0.00283143
-0.000704815
0.00576927
-0.00223289
0.00728723
-0.00151776
0.00824158
-0.000954234
0.00884425
-0.000602513
0.00920894
-0.00036462
0.00942508
-0.000216036
0.00957421
-0.000149079
0.00968537
-0.000111089
0.00979824
-0.00011284
0.0099185
-0.000120208
0.0100506
-0.00013208
0.0102087
-0.000158065
0.0103832
-0.000174502
0.0105678
-0.000184515
0.0107633
-0.000195556
0.0109725
-0.000209119
0.0111874
-0.000214896
0.0114032
-0.000215826
0.0116189
-0.000215668
0.0118387
-0.00021983
0.0120574
-0.000218655
0.0122712
-0.000213853
0.0124774
-0.000206188
0.0126791
-0.000201641
0.012876
-0.000196944
0.0130658
-0.000189742
0.0132465
-0.000180747
0.0134167
-0.000170114
0.0135784
-0.000161779
0.013732
-0.000153498
0.0138761
-0.000144116
0.0140105
-0.00013445
0.0141355
-0.000124979
0.0142391
-0.000103527
0.0142948
-5.57177e-05
0.0143275
-3.26787e-05
0.0143612
-3.37547e-05
0.0144255
-6.4235e-05
-0.000123774
0.0145493
0.0013417
-0.00425436
8.12472e-05
0.00268913
-0.00358027
0.00395879
-0.00278736
0.00506118
-0.00205655
0.00601047
-0.00155174
0.00680911
-0.0011632
0.0074695
-0.000876361
0.00802725
-0.000706782
0.00850215
-0.000585954
0.00892027
-0.000530922
0.00929214
-0.000492052
0.00963494
-0.000474849
0.00996621
-0.000489314
0.0102814
-0.000489723
0.0105837
-0.000486796
0.0108856
-0.000497389
0.0111849
-0.000508447
0.0114779
-0.000507839
0.0117638
-0.000501723
0.0120475
-0.000499388
0.0123294
-0.000501748
0.0126044
-0.00049364
0.0128715
-0.000480933
0.0131291
-0.000463739
0.0133838
-0.000456352
0.0136298
-0.00044291
0.0138661
-0.000426099
0.0140918
-0.000406394
0.0143056
-0.000383871
0.0145121
-0.000368328
0.0147073
-0.000348675
0.0148905
-0.000327255
0.0150603
-0.000304291
0.0152151
-0.000279778
0.0153546
-0.000243048
0.0154767
-0.000177728
0.0155874
-0.000143433
0.0156957
-0.000142076
0.0158069
-0.000175362
-0.00024466
0.0159278
0.00087145
-0.00536983
0.000244021
0.00199357
-0.00470238
0.00312786
-0.00392164
0.00419922
-0.00312789
0.00520386
-0.00255636
0.00612044
-0.00207976
0.0069025
-0.00165839
0.00761421
-0.00141847
0.00821969
-0.00119141
0.00874691
-0.00105812
0.00922527
-0.000970397
0.00965512
-0.000904677
0.0100446
-0.000878773
0.0104136
-0.000858681
0.0107664
-0.000839655
0.0111032
-0.000834192
0.0114292
-0.000834384
0.0117476
-0.000826213
0.0120593
-0.000813426
0.0123636
-0.000803666
0.0126604
-0.000798535
0.0129503
-0.000783563
0.0132332
-0.000763825
0.0135085
-0.000739054
0.0137746
-0.000722462
0.0140317
-0.000699928
0.0142793
-0.000673739
0.0145172
-0.000644322
0.0147449
-0.000611512
0.0149608
-0.000584185
0.015165
-0.000552926
0.0153573
-0.000519518
0.0155371
-0.00048408
0.0157037
-0.000446412
0.015856
-0.000395311
0.0159935
-0.00031527
0.0161171
-0.000266937
0.0162289
-0.000253914
0.0163296
-0.000276012
-0.000333893
0.0164188
0.000580304
-0.00628266
0.00033252
0.00151421
-0.00563629
0.00247889
-0.00488633
0.00343397
-0.00408297
0.00437675
-0.00349914
0.00528664
-0.00298964
0.00611407
-0.00248583
0.00689983
-0.00220422
0.00760047
-0.00189204
0.00823037
-0.00168801
0.00881082
-0.00155084
0.00933632
-0.00143016
0.00981181
-0.00135426
0.0102576
-0.00130444
0.0106775
-0.00125954
0.011072
-0.00122869
0.0114485
-0.0012109
0.0118113
-0.00118903
0.0121618
-0.00116387
0.0125004
-0.00114226
0.0128284
-0.00112653
0.0131467
-0.00110186
0.0134552
-0.00107233
0.0137536
-0.00103747
0.0140419
-0.0010107
0.0143197
-0.000977777
0.0145869
-0.000940859
0.0148428
-0.000900229
0.015087
-0.000855697
0.0153192
-0.000816465
0.0155391
-0.000772824
0.0157463
-0.000726639
0.0159401
-0.000677874
0.01612
-0.000626331
0.0162859
-0.000561233
0.0164381
-0.000467414
0.0165766
-0.000405417
0.0167021
-0.000379421
0.0168148
-0.00038868
-0.000432526
0.0169134
0.000439043
-0.00711252
0.00039081
0.00128187
-0.00647912
0.00214973
-0.0057542
0.00302167
-0.00495491
0.00390152
-0.004379
0.00477669
-0.00386481
0.005603
-0.00331214
0.00641347
-0.00301469
0.00716125
-0.00263982
0.00785188
-0.00237864
0.00850263
-0.00220158
0.00910072
-0.00202825
0.00964419
-0.00189772
0.0101554
-0.00181568
0.010637
-0.00174106
0.0110848
-0.00167649
0.0115082
-0.00163434
0.0119138
-0.00159458
0.0123031
-0.00155326
0.0126756
-0.00151472
0.0130331
-0.00148398
0.0133784
-0.0014472
0.013712
-0.00140588
0.0140339
-0.00135933
0.0143423
-0.00131911
0.0146389
-0.00127439
0.0149236
-0.00122557
0.0151961
-0.00117277
0.0154562
-0.00111576
0.0157024
-0.00106265
0.0159354
-0.00100579
0.0161548
-0.000946081
0.0163604
-0.000883447
0.0165518
-0.000817708
0.0167284
-0.000737823
0.0168906
-0.000629661
0.0170384
-0.000553129
0.0171712
-0.000512249
0.0172885
-0.000505941
-0.000533048
0.017389
0.000343122
-0.0078946
0.00043896
0.00113425
-0.00727026
0.00194412
-0.00656408
0.00276083
-0.00577163
0.00359079
-0.00520896
0.00442764
-0.00470167
0.00523698
-0.00412148
0.00604569
-0.0038234
0.00681191
-0.00340603
0.0075362
-0.00310293
0.00823155
-0.00289693
0.00888189
-0.00267859
0.00948032
-0.00249614
0.0100475
-0.00238286
0.0105841
-0.00227762
0.0110829
-0.00217529
0.0115535
-0.00210491
0.0120029
-0.00204396
0.0124326
-0.00198304
0.0128413
-0.00192343
0.0132314
-0.00187405
0.0136069
-0.00182263
0.0139681
-0.00176714
0.0143155
-0.00170673
0.0146469
-0.00165046
0.0149649
-0.00159237
0.0152695
-0.00153021
0.0155606
-0.00146391
0.015838
-0.00139315
0.0161001
-0.00132474
0.0163481
-0.00125372
0.0165815
-0.00117957
0.0168003
-0.0011022
0.017004
-0.00102144
0.0171922
-0.000925958
0.0173652
-0.000802695
0.0175229
-0.000710796
0.0176646
-0.000653988
0.0177898
-0.000631117
-0.000640805
0.0178976
0.000275849
-0.00865527
0.000484814
0.00104196
-0.00803638
0.00182108
-0.00734321
0.00260577
-0.00655632
0.00340311
-0.0060063
0.00421058
-0.00550915
0.0050023
-0.00491321
0.00580103
-0.00462214
0.00657176
-0.00417676
0.00731304
-0.00384421
0.0080351
-0.00361899
0.00872105
-0.00336454
0.00936089
-0.00313598
0.0099728
-0.00299476
0.0105558
-0.00286062
0.0111
-0.00271951
0.0116142
-0.00261909
0.0121054
-0.00253513
0.0125747
-0.00245237
0.0130198
-0.00236848
0.0134431
-0.00229736
0.0138495
-0.00222904
0.0142396
-0.00215723
0.0146138
-0.00208094
0.0149693
-0.00200595
0.0153098
-0.00193284
0.0156354
-0.00185587
0.0159462
-0.00177466
0.0162419
-0.00168888
0.0165207
-0.00160352
0.0167842
-0.00151724
0.0170323
-0.00142765
0.0172647
-0.00133459
0.0174812
-0.00123792
0.017681
-0.00112577
0.0178648
-0.00098644
0.0180322
-0.000878224
0.0181827
-0.000804443
0.0183155
-0.000763917
-0.000755209
0.0184299
0.000223184
-0.00940885
0.00053039
0.000979964
-0.00879316
0.00174565
-0.0081089
0.00251494
-0.00732562
0.00329447
-0.00678584
0.0040837
-0.00629838
0.00486319
-0.0056927
0.00565239
-0.00541135
0.006423
-0.00494737
0.00717314
-0.00459435
0.00791121
-0.00435706
0.00862123
-0.00407456
0.0092919
-0.00380665
0.00993872
-0.00364158
0.0105596
-0.0034815
0.011143
-0.00330286
0.0116962
-0.00317237
0.0122259
-0.0030648
0.0127326
-0.00295906
0.0132129
-0.00284879
0.0136692
-0.00275367
0.0141068
-0.00266661
0.0145262
-0.00257663
0.0149279
-0.00248262
0.0153085
-0.00238655
0.0156725
-0.0022968
0.0160201
-0.00220353
0.0163515
-0.002106
0.0166664
-0.00200383
0.0169628
-0.00189993
0.0172428
-0.00179726
0.0175063
-0.00169112
0.0177531
-0.00158132
0.0179828
-0.00146771
0.0181949
-0.00133779
0.0183898
-0.00118136
0.0185674
-0.00105585
0.0187271
-0.000964107
0.0188682
-0.00090498
-0.000877035
0.01899
0.000178838
-0.0101651
0.0005774
0.000936738
-0.00955106
0.00170061
-0.00887277
0.0024663
-0.00809131
0.00323961
-0.00755916
0.00402083
-0.00707961
0.00479514
-0.00646702
0.00557914
-0.00619535
0.0063502
-0.00571843
0.00710667
-0.00535082
0.00785571
-0.00510611
0.00858308
-0.00480193
0.00927741
-0.00450097
0.00995177
-0.00431595
0.0106035
-0.00413324
0.0112202
-0.00391956
0.0118079
-0.00376009
0.0123724
-0.00362921
0.0129135
-0.00350021
0.0134272
-0.0033625
0.0139155
-0.00324191
0.0143836
-0.00313475
0.0148321
-0.0030251
0.0152613
-0.00291184
0.0156674
-0.00279266
0.0160554
-0.00268479
0.0164257
-0.00257377
0.0167782
-0.00245855
0.017113
-0.00233865
0.0174278
-0.00221464
0.0177249
-0.00209439
0.0180043
-0.00197057
0.0182659
-0.00184292
0.0185095
-0.00171128
0.0187342
-0.00156244
0.0189406
-0.00138782
0.0191288
-0.001244
0.019298
-0.00113329
0.0194476
-0.00105458
-0.00100649
0.019577
0.000139163
-0.0109307
0.000626429
0.000905376
-0.0103173
0.00167547
-0.00964287
0.00244597
-0.00886181
0.00322176
-0.00833495
0.00400341
-0.00786126
0.00477931
-0.00724292
0.0055636
-0.00697964
0.0063381
-0.00649295
0.00710158
-0.0061143
0.00786029
-0.00586481
0.0086019
-0.00554355
0.00931573
-0.0052148
0.0100128
-0.00501305
0.0106903
-0.00481074
0.0113358
-0.00456499
0.0119539
-0.0043782
0.0125495
-0.00422483
0.0131222
-0.00407287
0.0136671
-0.00390746
0.0141858
-0.00376063
0.0146835
-0.00363241
0.0151604
-0.00350199
0.0156168
-0.00336823
0.0160484
-0.00322431
0.0164606
-0.00309697
0.0168537
-0.0029669
0.0172279
-0.00283265
0.017583
-0.00269375
0.0179165
-0.00254816
0.0182312
-0.00240912
0.0185271
-0.00226646
0.018804
-0.00211982
0.0190618
-0.00196904
0.0192994
-0.00180009
0.0195178
-0.00160617
0.0197168
-0.00144298
0.0198957
-0.00131228
0.0200542
-0.001213
-0.00114381
0.0201915
0.000102019
-0.0117106
0.000677893
0.00088182
-0.0110971
0.00166399
-0.010425
0.00244546
-0.00964329
0.00323029
-0.00911978
0.00401905
-0.00865003
0.0048024
-0.00802626
0.00559236
-0.00776961
0.00637416
-0.00727475
0.00714692
-0.00688706
0.00791614
-0.00663404
0.00867135
-0.00629876
0.00940285
-0.00594631
0.01012
-0.00573023
0.0108201
-0.00551078
0.0114909
-0.00523586
0.0121363
-0.00502357
0.0127602
-0.00484874
0.0133618
-0.00467446
0.013936
-0.00448159
0.0144836
-0.00430825
0.0150096
-0.0041584
0.015514
-0.00400639
0.0159969
-0.00385118
0.0164539
-0.00368126
0.0168902
-0.00353328
0.0173063
-0.00338296
0.0177021
-0.00322848
0.0180777
-0.00306934
0.0184303
-0.00290081
0.018763
-0.0027418
0.0190757
-0.00257914
0.0193682
-0.00241235
0.0196405
-0.00224129
0.0198914
-0.00205105
0.020122
-0.0018367
0.020332
-0.00165307
0.0205211
-0.00150131
0.0206885
-0.00138043
-0.00128914
0.0208338
6.60644e-05
-0.0125087
0.000732026
0.000863516
-0.0118945
0.00166221
-0.0112237
0.00245936
-0.0104404
0.00325828
-0.00991871
0.00405945
-0.00945121
0.00485514
-0.00882196
0.0056556
-0.00857006
0.00644859
-0.00806774
0.00723352
-0.007672
0.00801523
-0.00741575
0.00878485
-0.00706838
0.00953377
-0.00669524
0.01027
-0.00646647
0.0109909
-0.00623168
0.0116852
-0.00593016
0.0123557
-0.00569408
0.0130058
-0.0054988
0.0136343
-0.00530294
0.0142358
-0.00508316
0.014811
-0.00488338
0.0153641
-0.00471154
0.0158951
-0.0045374
0.016404
-0.00436002
0.0168858
-0.00416315
0.0173461
-0.0039935
0.017785
-0.00382186
0.0182025
-0.00364604
0.0185987
-0.00346552
0.0189707
-0.00327279
0.0193216
-0.00309267
0.0196513
-0.00290884
0.0199597
-0.00272076
0.0202467
-0.00252827
0.0205112
-0.00231557
0.0207541
-0.00207963
0.0209755
-0.00187446
0.0211748
-0.00170055
0.0213513
-0.00155701
-0.00144259
0.0215048
3.04239e-05
-0.0133281
0.000789
0.00084881
-0.0127129
0.00166758
-0.0120425
0.00248413
-0.011257
0.00330117
-0.0107357
0.00411902
-0.0102691
0.00493113
-0.00963407
0.00574624
-0.00938518
0.00655408
-0.00887558
0.00735419
-0.00847212
0.00815084
-0.0082124
0.00893649
-0.00785402
0.00970356
-0.00746231
0.0104589
-0.00722183
0.0112002
-0.00697295
0.011917
-0.00664695
0.0126114
-0.00638852
0.0132863
-0.00617364
0.0139402
-0.00595688
0.0145679
-0.00571086
0.0151694
-0.00548491
0.0157488
-0.00529088
0.0163056
-0.00509421
0.0168396
-0.00489409
0.0173461
-0.00466958
0.01783
-0.00447739
0.0182916
-0.00428347
0.0187308
-0.00408527
0.0191476
-0.0038823
0.019539
-0.00366423
0.0199082
-0.00346186
0.0202551
-0.00325574
0.0205796
-0.00304523
0.0208815
-0.00283017
0.0211598
-0.00259384
0.0214153
-0.00233517
0.0216481
-0.00210731
0.0218578
-0.00191016
0.0220436
-0.00174286
-0.00160423
0.0222052
-5.50118e-06
-0.0141716
0.000848945
0.000836593
-0.013555
0.00167839
-0.0128843
0.00251744
-0.012096
0.0033559
-0.0115742
0.00419395
-0.0111071
0.00502592
-0.0104661
0.00585927
-0.0102185
0.00668523
-0.00970154
0.00750345
-0.00929033
0.00831762
-0.00902658
0.00912129
-0.00865769
0.00990781
-0.00824883
0.0106831
-0.00799714
0.011445
-0.00773488
0.0121842
-0.00738606
0.0129021
-0.00710641
0.013601
-0.00687259
0.0142796
-0.00663547
0.0149326
-0.00636387
0.0155597
-0.00611205
0.0161645
-0.00589569
0.0167465
-0.0056762
0.0173053
-0.00545287
0.017836
-0.00520022
0.0183433
-0.00498471
0.0188274
-0.00476762
0.0192883
-0.0045461
0.0197257
-0.00431969
0.0201366
-0.00407521
0.0205243
-0.0038495
0.0208885
-0.00361997
0.0212292
-0.0033859
0.0215462
-0.00314713
0.0218383
-0.00288602
0.0221066
-0.00260344
0.0223511
-0.00235176
0.0225711
-0.00213023
0.0227663
-0.00193805
-0.0017741
0.0229362
-4.21377e-05
-0.0150414
0.000911981
0.000826098
-0.0144233
0.00169349
-0.0137517
0.00255768
-0.0129602
0.00342039
-0.0124369
0.00428162
-0.0119684
0.00513642
-0.0113208
0.00599112
-0.0110732
0.00683814
-0.0105486
0.00767718
-0.0101294
0.00851142
-0.00986083
0.00933527
-0.00948154
0.0101429
-0.00905643
0.0109394
-0.00879363
0.0117228
-0.00851832
0.0124846
-0.00814789
0.0132261
-0.00784785
0.013949
-0.00759549
0.0146519
-0.00733841
0.0153298
-0.00704177
0.0159822
-0.00676441
0.0166121
-0.00652558
0.0172188
-0.00628297
0.017802
-0.00603604
0.0183566
-0.00575485
0.0188872
-0.0055153
0.0193938
-0.00527423
0.0198762
-0.0050285
0.0203342
-0.00477768
0.0207648
-0.00450581
0.021171
-0.0042557
0.0215527
-0.00400166
0.0219097
-0.00374291
0.0222419
-0.0034793
0.0225481
-0.00319225
0.0228293
-0.0028846
0.0230854
-0.00260793
0.0233161
-0.00236085
0.0235207
-0.00214265
-0.00195224
0.0236988
-7.98039e-05
-0.0159398
0.000978221
0.000816782
-0.0153198
0.00171205
-0.014647
0.00260375
-0.0138519
0.00349318
-0.0133264
0.00438023
-0.0128554
0.00526044
-0.0122011
0.00613926
-0.011952
0.00701001
-0.0114193
0.00787238
-0.0109917
0.00872912
-0.0107176
0.00957531
-0.0103277
0.0104058
-0.0098869
0.011225
-0.00961281
0.0120311
-0.00932447
0.0128165
-0.00893326
0.013582
-0.00861335
0.0143291
-0.00834267
0.0150565
-0.0080658
0.0157593
-0.00774456
0.0164368
-0.00744187
0.0170916
-0.00718039
0.017723
-0.00691439
0.0183304
-0.00664344
0.018909
-0.00633338
0.0194628
-0.00606911
0.0199918
-0.00580327
0.0204958
-0.00553247
0.0209744
-0.00525631
0.0214248
-0.00495614
0.0218496
-0.00468058
0.0222489
-0.00440095
0.0226224
-0.0041164
0.0229699
-0.0038268
0.0232903
-0.00351267
0.0235845
-0.00317876
0.0238525
-0.00287591
0.0240937
-0.00260211
0.0243078
-0.00235671
-0.00213867
0.0244942
-0.000118752
-0.0168688
0.00104778
0.000808241
-0.0162468
0.00173351
-0.0155723
0.00265487
-0.0147733
0.00357329
-0.0142448
0.0044885
-0.0137706
0.0053965
-0.0131091
0.0063019
-0.0128574
0.00719882
-0.0123162
0.00808687
-0.0118798
0.0089684
-0.0115991
0.00983907
-0.0111984
0.0106942
-0.0107421
0.0115378
-0.0104563
0.012368
-0.0101547
0.013178
-0.00974326
0.0139684
-0.00940376
0.0147405
-0.00911473
0.0154928
-0.00881811
0.0162208
-0.00847253
0.0169235
-0.00814463
0.0176034
-0.00786026
0.0182595
-0.00757052
0.0188912
-0.00727514
0.0194937
-0.00693589
0.0200708
-0.00664622
0.0206224
-0.00635485
0.0211481
-0.00605813
0.0216475
-0.00575572
0.0221177
-0.00542635
0.0225614
-0.00512429
0.0229784
-0.00481798
0.0233685
-0.00450651
0.0237315
-0.00418978
0.0240663
-0.00384742
0.0243736
-0.00348606
0.0246535
-0.00315582
0.0249054
-0.00285409
0.025129
-0.00258028
-0.00233341
0.0253238
-0.000159186
-0.0178304
0.00112077
0.000800176
-0.0172062
0.00175745
-0.0165295
0.00271051
-0.0157263
0.00366001
-0.0151943
0.00460557
-0.0147162
0.00554353
-0.014047
0.00647781
-0.0137917
0.00740314
-0.0132416
0.00831907
-0.0127957
0.00922759
-0.0125076
0.0101248
-0.0120956
0.0110065
-0.0116238
0.0118761
-0.0113259
0.012732
-0.0110106
0.0135679
-0.0105792
0.0143843
-0.0102201
0.0151821
-0.00991258
0.01596
-0.00959603
0.0167137
-0.00922623
0.0174422
-0.00887313
0.0181475
-0.00856552
0.0188286
-0.00825166
0.0194848
-0.00793135
0.0201115
-0.00756259
0.0207122
-0.00724683
0.0212865
-0.00692914
0.021834
-0.00660565
0.0223543
-0.00627608
0.0228446
-0.00591665
0.0233074
-0.00558703
0.0237424
-0.00525296
0.0241493
-0.00491344
0.0245279
-0.00456842
0.0248772
-0.00419666
0.0251978
-0.00380664
0.0254897
-0.00344777
0.0257525
-0.00311688
0.0259857
-0.00281343
-0.00253648
0.0261887
-0.000201278
-0.0188265
0.00119732
0.000792356
-0.0181998
0.00178357
-0.0175207
0.00277027
-0.0167131
0.00375286
-0.0161769
0.00473083
-0.0156941
0.00570082
-0.015017
0.00666612
-0.014757
0.00762198
-0.0141974
0.00856788
-0.0137416
0.00950548
-0.0134452
0.0104312
-0.0130214
0.0113414
-0.0125339
0.0122387
-0.0122232
0.0131219
-0.0118938
0.0139851
-0.0114424
0.0148287
-0.0110637
0.0156533
-0.0107373
0.0164578
-0.0104005
0.017238
-0.0100064
0.0179929
-0.00962799
0.0187241
-0.00929673
0.0194307
-0.00895825
0.0201118
-0.0086125
0.0207631
-0.00821385
0.0213875
-0.00787128
0.0219848
-0.00752647
0.0225545
-0.00717534
0.0230961
-0.00681768
0.0236068
-0.0064273
0.0240888
-0.00606908
0.024542
-0.00570612
0.024966
-0.00533741
0.0253605
-0.00496292
0.0257244
-0.00456059
0.0260584
-0.00414067
0.0263626
-0.00375192
0.0266363
-0.00339059
0.0268791
-0.00305622
-0.00274793
0.0270905
-0.000245179
-0.0198588
0.00127754
0.000784602
-0.0192296
0.00181164
-0.0185478
0.0028339
-0.0177353
0.00385152
-0.0171945
0.00486389
-0.0167065
0.00586788
-0.016021
0.00686626
-0.0157554
0.00785468
-0.0151858
0.00883257
-0.0147195
0.00980127
-0.0144139
0.0107575
-0.0139776
0.0116979
-0.0134743
0.0126248
-0.0131501
0.0135369
-0.0128059
0.0144289
-0.0123344
0.015301
-0.0119358
0.0161537
-0.01159
0.0169858
-0.0112326
0.0177934
-0.010814
0.0185754
-0.01041
0.0193333
-0.0100546
0.020066
-0.00969094
0.0207726
-0.00931912
0.0214489
-0.00889015
0.0220976
-0.00852002
0.0227184
-0.00814725
0.0233107
-0.00776758
0.0238738
-0.00738087
0.0244052
-0.00695866
0.0249069
-0.00657074
0.0253785
-0.00617777
0.0258198
-0.0057787
0.0262304
-0.00537353
0.0266092
-0.00493943
0.0269569
-0.00448834
0.0272734
-0.00406841
0.0275582
-0.00367534
0.0278107
-0.00330875
-0.0029678
0.0280306
-0.000291023
-0.0209294
0.00136158
0.00077677
-0.0202974
0.00184152
-0.0196125
0.00290122
-0.018795
0.00395578
-0.0182491
0.0050045
-0.0177552
0.00604443
-0.0170609
0.00707788
-0.0167889
0.00810084
-0.0162088
0.00911268
-0.0157313
0.0101144
-0.0154157
0.0111031
-0.0149664
0.0120756
-0.0144467
0.0130338
-0.0141083
0.0139764
-0.0137485
0.0148988
-0.0132568
0.0158008
-0.0128378
0.0166829
-0.0124721
0.0175438
-0.0120935
0.0183799
-0.0116501
0.01919
-0.0112202
0.0199754
-0.0108399
0.0207349
-0.0104505
0.0214677
-0.0100519
0.0221697
-0.00959213
0.0228433
-0.00919362
0.023488
-0.008792
0.0241033
-0.00838286
0.0246885
-0.0079661
0.025241
-0.00751113
0.0257627
-0.0070924
0.0262532
-0.00666826
0.0267121
-0.00623762
0.0271391
-0.00580053
0.0275331
-0.00533345
0.0278946
-0.00484989
0.0282237
-0.00439744
0.0285196
-0.0039713
0.028782
-0.00357112
-0.00319617
0.0290104
-0.000338937
-0.02204
0.00144957
0.000768746
-0.0214051
0.00187309
-0.0207169
0.00297212
-0.019894
0.00406552
-0.0193425
0.00515251
-0.0188422
0.00623031
-0.0181388
0.00730078
-0.0178593
0.00836024
-0.0172683
0.00940794
-0.0167791
0.0104447
-0.0164525
0.0114677
-0.0159894
0.012474
-0.015453
0.0134653
-0.0150996
0.0144403
-0.0147235
0.0153946
-0.014211
0.016328
-0.0137712
0.0172409
-0.013385
0.0181319
-0.0129844
0.0189976
-0.0125158
0.0198369
-0.0120595
0.0206507
-0.0116538
0.021438
-0.0112378
0.0221978
-0.0108117
0.0229261
-0.0103205
0.0236253
-0.00989274
0.0242946
-0.00946134
0.0249335
-0.00902173
0.0255413
-0.0085739
0.0261154
-0.00808521
0.0266575
-0.00763451
0.0271672
-0.00717799
0.0276441
-0.00671455
0.0280879
-0.00624428
0.0284974
-0.00574293
0.0288731
-0.00522558
0.0292148
-0.00473923
0.0295222
-0.00427863
0.0297945
-0.00384349
-0.00343312
0.0300315
-0.000389039
-0.0231926
0.00154165
0.000760433
-0.0225546
0.00190628
-0.0218627
0.00304652
-0.0210343
0.00418069
-0.0204766
0.00530787
-0.0199694
0.00642546
-0.0192563
0.0075349
-0.0189688
0.00863278
-0.0183661
0.00971828
-0.0178646
0.010792
-0.0175261
0.0118512
-0.0170486
0.0128932
-0.016495
0.0139194
-0.0161258
0.0149284
-0.0157326
0.0159163
-0.0151989
0.0168827
-0.0147376
0.0178277
-0.01433
0.0187501
-0.0139069
0.0196468
-0.0134125
0.0205164
-0.0129291
0.0213598
-0.0124971
0.0221758
-0.0120538
0.0229634
-0.0115994
0.0237191
-0.0110761
0.0244445
-0.0106182
0.0251391
-0.010156
0.0258023
-0.00968487
0.0264332
-0.00920486
0.0270295
-0.00868145
0.0275925
-0.00819758
0.028122
-0.00770745
0.0286174
-0.00720993
0.0290782
-0.00670515
0.0295035
-0.00616823
0.0298937
-0.0056157
0.0302485
-0.00509405
0.0305674
-0.00459756
0.0308499
-0.00412601
-0.00367879
0.0310956
-0.000441444
-0.0243892
0.00163797
0.000751752
-0.0237478
0.00194103
-0.023052
0.00312442
-0.0222177
0.00430128
-0.0216535
0.00547061
-0.0211387
0.00662992
-0.0204156
0.00778028
-0.0201191
0.00891853
-0.0195044
0.0100437
-0.0189898
0.0111563
-0.0186387
0.0122537
-0.018146
0.0133332
-0.0175746
0.014396
-0.0171886
0.0154409
-0.0167775
0.016464
-0.016222
0.0174649
-0.0157385
0.0184437
-0.0153088
0.019399
-0.0148622
0.0203279
-0.0143413
0.0212291
-0.0138303
0.0221031
-0.0133712
0.0229489
-0.0128996
0.0237655
-0.0124159
0.0245493
-0.0118599
0.0253019
-0.0113707
0.0260226
-0.0108767
0.0267107
-0.010373
0.0273655
-0.00985968
0.0279846
-0.00930048
0.0285692
-0.00878219
0.0291189
-0.00825715
0.0296332
-0.00772422
0.0301116
-0.00718357
0.0305531
-0.00660974
0.030958
-0.00602061
0.0313262
-0.00546218
0.0316569
-0.00492832
0.0319498
-0.00441889
-0.00393331
0.0322043
-0.000496262
-0.0256316
0.00173869
0.000742634
-0.0249867
0.00197731
-0.0242867
0.00320583
-0.0234462
0.00442735
-0.022875
0.0056408
-0.0223522
0.00684378
-0.0216186
0.00803705
-0.0213124
0.00921761
-0.0206849
0.0103845
-0.0201566
0.0115378
-0.019792
0.0126752
-0.0192834
0.0137942
-0.0186935
0.0148955
-0.0182899
0.015978
-0.0178599
0.017038
-0.017282
0.0180751
-0.0167756
0.0190892
-0.0163229
0.0200789
-0.0158519
0.0210414
-0.0153039
0.0219755
-0.0147643
0.0228815
-0.0142772
0.0237583
-0.0137764
0.0246048
-0.0132625
0.0254178
-0.0126728
0.0261984
-0.0121514
0.0269461
-0.0116244
0.0276601
-0.0110869
0.0283395
-0.0105391
0.028982
-0.009943
0.0295888
-0.00938899
0.0301594
-0.00882769
0.0306931
-0.00825797
0.0311896
-0.00768004
0.0316477
-0.00706788
0.0320678
-0.00644069
0.0324496
-0.00584397
0.0327925
-0.00527121
0.0330959
-0.00472234
-0.00419686
0.0333595
-0.000553605
-0.026922
0.00184397
0.000733018
-0.0262733
0.00201513
-0.0255688
0.00329078
-0.0247219
0.00455897
-0.0241432
0.00581855
-0.0236118
0.00706721
-0.0228673
0.00830539
-0.0225506
0.00953026
-0.0219098
0.0107408
-0.0213671
0.0119368
-0.0209881
0.0131162
-0.0204628
0.0142765
-0.0198538
0.0154182
-0.0194316
0.0165401
-0.0189818
0.0176388
-0.0183807
0.0187138
-0.0178506
0.0197647
-0.0173738
0.0207904
-0.0168776
0.021788
-0.0163015
0.0227564
-0.0157327
0.0236956
-0.0152164
0.0246047
-0.0146855
0.0254824
-0.0141402
0.0263255
-0.013516
0.0271353
-0.0129612
0.027911
-0.0124001
0.0286516
-0.0118276
0.0293564
-0.011244
0.0300232
-0.0106098
0.0306529
-0.0100187
0.0312449
-0.00941972
0.0317987
-0.00881177
0.0323137
-0.00819508
0.032789
-0.00754314
0.0332247
-0.00687636
0.0336205
-0.00623977
0.0339758
-0.00562653
0.0342901
-0.00503663
-0.00446965
0.0345629
-0.000613583
-0.0282624
0.00195398
0.000722854
-0.0276097
0.00205447
-0.0269004
0.00337932
-0.0260467
0.00469626
-0.0254601
0.00600404
-0.0249195
0.00730042
-0.0241637
0.00858555
-0.0238357
0.00985676
-0.023181
0.0111129
-0.0226233
0.0123537
-0.0222289
0.0135771
-0.0216862
0.0147805
-0.0210573
0.0159645
-0.0206156
0.0171277
-0.020145
0.0182669
-0.0195199
0.0193815
-0.0189651
0.020471
-0.0184634
0.0215343
-0.0179408
0.0225686
-0.0173358
0.0235726
-0.0167368
0.0245465
-0.0161903
0.0254891
-0.015628
0.0263992
-0.0150503
0.0272738
-0.0143906
0.0281137
-0.0138012
0.0289183
-0.0132046
0.0296866
-0.0125959
0.0304178
-0.0119751
0.0311096
-0.0113016
0.0317629
-0.010672
0.0323771
-0.0100339
0.0329516
-0.00938625
0.0334858
-0.00872928
0.0339787
-0.00803604
0.0344304
-0.00732808
0.0348406
-0.00665
0.0352087
-0.00599463
0.0355342
-0.00536205
-0.00475189
0.0358164
-0.000676306
-0.0296549
0.0020689
0.000712093
-0.0289981
0.00209536
-0.0282837
0.00347155
-0.0274229
0.00483935
-0.0268279
0.00619744
-0.0262776
0.00754364
-0.0255099
0.00887783
-0.0251699
0.0101975
-0.0245007
0.0115013
-0.0239271
0.0127889
-0.0235166
0.0140582
-0.0229555
0.0153069
-0.0223059
0.0165351
-0.0218438
0.0177414
-0.0213514
0.018923
-0.0207015
0.020079
-0.0201211
0.0212088
-0.0195933
0.0223113
-0.0190433
0.0233839
-0.0184084
0.0244252
-0.0177781
0.0254352
-0.0172003
0.0264127
-0.0166055
0.0273565
-0.0159941
0.0282637
-0.0152978
0.029135
-0.0146725
0.0299696
-0.0140392
0.0307665
-0.0133928
0.031525
-0.0127336
0.0322427
-0.0120193
0.0329205
-0.0113498
0.0335577
-0.0106711
0.0341535
-0.00998211
0.0347075
-0.00928327
0.0352186
-0.00854715
0.0356869
-0.00779636
0.036112
-0.0070751
0.0364933
-0.00637591
0.0368302
-0.00569892
-0.00504386
0.0371221
-0.000741887
-0.031102
0.0021889
0.000700695
-0.0304407
0.00213782
-0.0297208
0.00356754
-0.0288526
0.0049884
-0.0282488
0.00639899
-0.0276882
0.00779717
-0.0269081
0.00918257
-0.0265553
0.0105528
-0.0258709
0.0119064
-0.0252807
0.0132429
-0.0248531
0.0145602
-0.0242728
0.0158561
-0.0236018
0.0171305
-0.0231182
0.018382
-0.0226029
0.0196078
-0.0219273
0.020807
-0.0213203
0.021979
-0.0207653
0.0231225
-0.0201868
0.024235
-0.0195208
0.0253151
-0.0188582
0.0263627
-0.0182479
0.0273765
-0.0176193
0.0283554
-0.016973
0.0292966
-0.0162389
0.0302005
-0.0155764
0.0310662
-0.014905
0.0318929
-0.0142195
0.0326797
-0.0135203
0.0334243
-0.012764
0.0341274
-0.0120529
0.0347883
-0.011332
0.0354063
-0.0106001
0.0359807
-0.00985773
0.0365107
-0.00907708
0.0369961
-0.00828176
0.0374365
-0.00751556
0.0378314
-0.00677077
0.0381801
-0.0060476
-0.00534585
0.0384821
-0.00081044
-0.0326057
0.00231418
0.00068862
-0.0319398
0.00218189
-0.0312141
0.00366742
-0.0303381
0.00514359
-0.029725
0.00660892
-0.0291535
0.00806133
-0.0283605
0.00950016
-0.0279941
0.0109231
-0.0272938
0.0123287
-0.0266864
0.0137163
-0.0262407
0.0150838
-0.0256403
0.016429
-0.024947
0.0177516
-0.0244408
0.0190503
-0.0239016
0.0203223
-0.0231993
0.0215666
-0.0225646
0.0227826
-0.0219812
0.0239688
-0.021373
0.0251229
-0.020675
0.0262435
-0.0199788
0.0273303
-0.0193347
0.028382
-0.018671
0.0293974
-0.0179884
0.0303739
-0.0172153
0.0313116
-0.0165141
0.0322098
-0.0158032
0.0330674
-0.0150771
0.0338835
-0.0143364
0.034656
-0.0135365
0.0353854
-0.0127823
0.0360709
-0.0120175
0.0367118
-0.011241
0.0373074
-0.0104534
0.0378569
-0.00962649
0.03836
-0.00878485
0.0388163
-0.0079719
0.0392252
-0.00717968
0.0395861
-0.00640847
-0.00565816
0.0398984
-0.000882079
-0.0341685
0.00244493
0.000675832
-0.0334977
0.00222762
-0.0327659
0.0037713
-0.0318818
0.00530512
-0.0312588
0.00682752
-0.0306759
0.00833645
-0.0298694
0.009831
-0.0294887
0.011309
-0.0287717
0.0127688
-0.0281462
0.0142096
-0.0276815
0.0156295
-0.0270601
0.0170261
-0.0263436
0.0183991
-0.0258138
0.019747
-0.0252496
0.0210673
-0.0245195
0.0223587
-0.0238561
0.0236205
-0.0232431
0.0248514
-0.0226038
0.0260489
-0.0218725
0.0272117
-0.0211417
0.0283394
-0.0204623
0.0294305
-0.0197622
0.030484
-0.0190419
0.0314971
-0.0182284
0.0324701
-0.0174871
0.0334019
-0.016735
0.0342916
-0.0159668
0.0351382
-0.0151829
0.0359397
-0.014338
0.0366963
-0.0135389
0.0374074
-0.0127285
0.038072
-0.0119057
0.0386896
-0.011071
0.0392592
-0.0101961
0.0397807
-0.00930629
0.0402534
-0.00844469
0.0406769
-0.00760312
0.0410504
-0.00678195
-0.00598116
0.0413734
-0.000956925
-0.035793
0.00258136
0.000662299
-0.0351169
0.00227504
-0.0343786
0.00387931
-0.0334861
0.00547321
-0.0328527
0.00705508
-0.0322578
0.00862291
-0.0314372
0.0101756
-0.0310414
0.0117109
-0.0303071
0.0132272
-0.0296626
0.0147236
-0.0291779
0.0161981
-0.0285345
0.0176484
-0.0277939
0.0190739
-0.0272394
0.0204732
-0.0266489
0.0218438
-0.02589
0.0231843
-0.0251966
0.024494
-0.0245528
0.0257714
-0.0238812
0.0270142
-0.0231153
0.028221
-0.0223485
0.0293912
-0.0216325
0.0305235
-0.0208945
0.0316165
-0.0201349
0.0326679
-0.0192797
0.0336775
-0.0184967
0.0346444
-0.0177019
0.0355674
-0.0168899
0.0364457
-0.0160612
0.0372773
-0.0151695
0.0380622
-0.0143238
0.0387997
-0.013466
0.0394891
-0.012595
0.0401295
-0.0117114
0.04072
-0.0107866
0.0412604
-0.00984672
0.0417502
-0.00893452
0.0421888
-0.00804162
0.0425753
-0.0071685
-0.00631521
0.0429094
-0.0010351
-0.0374815
0.00272367
0.000647988
-0.0368
0.00232423
-0.0360549
0.00399161
-0.0351535
0.00564809
-0.0345092
0.00729193
-0.0339017
0.00892113
-0.0330664
0.0105343
-0.0326545
0.0121294
-0.0319022
0.0137047
-0.0312379
0.015259
-0.0307322
0.0167904
-0.0300659
0.0182967
-0.0293002
0.019777
-0.0287197
0.0212299
-0.0281018
0.0226529
-0.027313
0.0240447
-0.0265884
0.0254043
-0.0259124
0.0267302
-0.0252071
0.0280203
-0.0244053
0.0292729
-0.0236011
0.0304874
-0.0228471
0.0316625
-0.0220695
0.0327968
-0.0212692
0.0338879
-0.0203708
0.0349356
-0.0195445
0.0359389
-0.0187052
0.0368967
-0.0178477
0.037808
-0.0169725
0.0386707
-0.0160323
0.0394851
-0.0151382
0.0402501
-0.014231
0.0409651
-0.0133099
0.0416291
-0.0123755
0.0422414
-0.0113988
0.0428015
-0.0104069
0.043309
-0.00944203
0.0437632
-0.00849575
0.0441633