/*--------------------------------*- C++ -*----------------------------------*\
| =========                 |                                                 |
| \\      /  F ield         | OpenFOAM: The Open Source CFD Toolbox           |
|  \\    /   O peration     | Version:  3.0.1                                 |
|   \\  /    A nd           | Web:      www.OpenFOAM.org                      |
|    \\/     M anipulation  |                                                 |
\*---------------------------------------------------------------------------*/
FoamFile
{
    version     2.0;
    format      ascii;
    class       volVectorField;
    location    "500";
    object      U;
}
// * * * * * * * * * * * * * * * * * * * * * * * * * * * * * * * * * * * * * //

dimensions      [0 1 -1 0 0 0 0];

internalField   nonuniform List<vector> 
58000
(
(0.379316 0.220915 -2.20393e-20)
(0.404717 0.423838 5.62507e-20)
(0.467018 0.576787 -2.43903e-20)
(0.547184 0.670192 1.90794e-20)
(0.631512 0.716396 3.45334e-20)
(0.713599 0.730191 0)
(0.788013 0.723146 -5.0943e-22)
(0.852725 0.702725 -2.78369e-21)
(0.909853 0.675295 3.28715e-21)
(0.957403 0.644977 0)
(0.997565 0.613607 7.9786e-21)
(1.03214 0.582403 6.30831e-21)
(1.0611 0.55315 -3.20069e-20)
(1.08498 0.525833 1.26291e-20)
(1.10581 0.499742 9.76533e-21)
(1.12395 0.475222 2.56211e-20)
(1.13893 0.452584 -3.64279e-20)
(1.15179 0.431449 0)
(1.16323 0.411264 2.76626e-20)
(1.1733 0.391919 -4.28582e-20)
(1.1818 0.373834 -6.76502e-22)
(1.189 0.356836 1.49801e-20)
(1.19558 0.340519 7.12732e-21)
(1.20122 0.324429 0)
(1.20624 0.309026 1.38929e-20)
(1.21 0.294527 -7.18917e-21)
(1.21331 0.280584 0)
(1.21631 0.267018 4.24548e-22)
(1.21863 0.253555 0)
(1.22063 0.240631 -7.19053e-21)
(1.22182 0.228398 3.59068e-20)
(1.22282 0.216519 -3.5644e-20)
(1.22371 0.204846 -2.18812e-20)
(1.22435 0.193208 5.66667e-20)
(1.22471 0.181634 -1.42087e-20)
(1.22287 0.170029 -7.36992e-21)
(1.21799 0.158956 1.05993e-20)
(1.21263 0.149415 -6.88523e-21)
(1.20822 0.141359 1.01714e-20)
(1.21199 0.135577 0)
(0.501648 0.102726 -1.49659e-20)
(0.512758 0.196785 0)
(0.548545 0.287259 -1.18323e-22)
(0.601102 0.365305 1.21575e-22)
(0.663161 0.426779 -2.48912e-20)
(0.729974 0.471345 -2.38849e-20)
(0.794852 0.499721 3.26882e-20)
(0.85651 0.514721 -6.84264e-21)
(0.913022 0.518701 -1.19681e-20)
(0.961855 0.51517 4.32756e-21)
(1.00503 0.505927 0)
(1.04266 0.492347 -1.10958e-20)
(1.07393 0.47717 6.18124e-21)
(1.10063 0.461065 6.90878e-21)
(1.12424 0.443562 -7.71871e-21)
(1.14436 0.425918 0)
(1.16136 0.409115 8.93043e-21)
(1.17632 0.392566 0)
(1.18971 0.375838 3.51074e-20)
(1.20141 0.359455 -5.34545e-20)
(1.21149 0.344094 0)
(1.22044 0.329303 4.95133e-20)
(1.22856 0.314585 -3.85588e-20)
(1.23583 0.299827 0)
(1.24209 0.285798 -1.54424e-20)
(1.24756 0.272619 0)
(1.25248 0.259636 0)
(1.25688 0.246717 1.59242e-20)
(1.26069 0.233814 0)
(1.26391 0.221497 -1.6224e-20)
(1.26667 0.209825 2.12333e-20)
(1.26907 0.198275 -2.15639e-20)
(1.27109 0.186717 1.57313e-20)
(1.27263 0.175081 -1.10011e-20)
(1.2736 0.163551 0)
(1.27385 0.152336 -1.65397e-20)
(1.27346 0.142129 1.0798e-20)
(1.27309 0.133488 0)
(1.27373 0.125865 -2.78538e-21)
(1.27534 0.119093 5.44251e-21)
(0.606229 0.0858627 8.81428e-21)
(0.598617 0.148914 -4.20161e-21)
(0.602003 0.216138 -1.54821e-20)
(0.618802 0.281977 -1.90364e-21)
(0.648351 0.341911 1.97618e-21)
(0.688747 0.393592 1.34519e-20)
(0.735112 0.433215 -1.10073e-20)
(0.78511 0.461603 0)
(0.835796 0.479641 5.26513e-21)
(0.883331 0.487877 -4.94801e-21)
(0.928326 0.488727 1.31244e-22)
(0.969915 0.483983 -3.47637e-22)
(1.00598 0.475093 0)
(1.0377 0.463234 9.87359e-21)
(1.06656 0.449356 -6.11679e-21)
(1.09165 0.434535 0)
(1.11299 0.419302 0)
(1.13188 0.403689 0)
(1.14896 0.387852 -5.28184e-21)
(1.16402 0.372248 6.60388e-21)
(1.17694 0.357162 0)
(1.18836 0.342339 6.43036e-21)
(1.19876 0.327635 0)
(1.20825 0.313092 0)
(1.21648 0.299164 1.50752e-20)
(1.2236 0.285777 -3.14836e-20)
(1.23003 0.272545 3.1346e-20)
(1.23588 0.259484 8.02199e-21)
(1.24117 0.246597 -1.6188e-20)
(1.24573 0.234241 -1.21629e-20)
(1.2496 0.22235 0)
(1.25303 0.210579 8.08572e-21)
(1.25606 0.198933 0)
(1.25866 0.187425 2.38518e-22)
(1.26076 0.176268 -1.27434e-20)
(1.26232 0.165581 8.59463e-21)
(1.26342 0.155326 0)
(1.26426 0.14546 0)
(1.26508 0.135738 -2.17209e-21)
(1.2659 0.125795 -2.33864e-21)
(0.683575 0.0784715 7.04515e-21)
(0.675347 0.120162 2.5842e-21)
(0.671911 0.1662 1.48994e-21)
(0.675914 0.2143 8.31505e-23)
(0.688766 0.261905 -9.7468e-21)
(0.710879 0.307278 0)
(0.740532 0.346348 8.86057e-21)
(0.775919 0.378736 0)
(0.815238 0.403534 5.50603e-21)
(0.85499 0.42 -1.97892e-21)
(0.894798 0.429652 2.24042e-21)
(0.933497 0.433294 -2.719e-21)
(0.968681 0.431763 -8.52068e-22)
(1.0007 0.426375 -5.27833e-21)
(1.03049 0.418023 -5.06123e-21)
(1.05701 0.407602 3.90981e-21)
(1.08004 0.395925 -4.75206e-21)
(1.10066 0.383282 0)
(1.1194 0.369857 -2.52829e-21)
(1.13602 0.35613 -1.70881e-20)
(1.15044 0.342541 1.70817e-20)
(1.16325 0.329 -5.15507e-21)
(1.17489 0.315372 0)
(1.18546 0.301694 0)
(1.19471 0.288423 1.64642e-20)
(1.20279 0.275612 -2.21855e-20)
(1.2101 0.262909 2.35823e-20)
(1.21672 0.250298 6.22608e-22)
(1.22269 0.237775 -4.86725e-20)
(1.22787 0.225684 3.11075e-20)
(1.23237 0.214036 -1.26825e-20)
(1.23637 0.202516 -6.86593e-21)
(1.23991 0.191111 2.58688e-20)
(1.24297 0.179821 -9.58221e-21)
(1.24553 0.168825 3.43331e-21)
(1.24765 0.158226 -3.23972e-21)
(1.24942 0.147915 -3.26754e-21)
(1.25092 0.13787 0)
(1.25227 0.128053 1.69758e-21)
(1.25345 0.118381 -1.7698e-21)
(0.734199 0.0762554 -3.65929e-21)
(0.726928 0.106992 -8.18077e-21)
(0.721862 0.14088 2.83743e-21)
(0.720904 0.177075 6.66286e-21)
(0.725663 0.214474 8.60539e-22)
(0.737161 0.252282 0)
(0.755276 0.287282 -3.69961e-21)
(0.779192 0.318847 -3.2575e-21)
(0.808056 0.345666 0)
(0.839371 0.36611 -4.58865e-21)
(0.872582 0.381036 -3.61845e-21)
(0.906516 0.390624 0)
(0.938795 0.394849 4.2201e-22)
(0.969299 0.394799 7.38347e-22)
(0.99855 0.391418 0)
(1.02525 0.385292 -4.25889e-21)
(1.04898 0.377126 1.65409e-20)
(1.07058 0.36743 1.61158e-21)
(1.09046 0.356539 -3.48724e-21)
(1.10828 0.344919 0)
(1.12387 0.332994 0)
(1.13782 0.320794 0)
(1.15055 0.308308 6.83955e-21)
(1.16217 0.295635 0)
(1.17236 0.283193 0)
(1.18129 0.271027 0)
(1.18939 0.258872 1.37846e-20)
(1.19676 0.246745 -1.80277e-20)
(1.20342 0.234669 2.3577e-20)
(1.20924 0.222962 -1.44432e-20)
(1.21429 0.211617 0)
(1.21881 0.200363 0)
(1.22284 0.189209 -5.35478e-21)
(1.22639 0.178168 1.56887e-20)
(1.22942 0.167411 1.25186e-22)
(1.23198 0.157008 -1.3163e-20)
(1.23419 0.146819 8.09963e-21)
(1.23607 0.136786 0)
(1.23765 0.126894 0)
(1.23882 0.117115 -2.79734e-21)
(0.772984 0.0752486 0)
(0.767014 0.0987548 5.3516e-21)
(0.762089 0.124569 1.00548e-20)
(0.759493 0.152385 -1.0279e-20)
(0.760544 0.181763 3.18227e-21)
(0.766249 0.212486 -7.49519e-21)
(0.777145 0.24228 -2.43474e-21)
(0.79298 0.270664 -6.59492e-21)
(0.813611 0.296412 6.44295e-22)
(0.837456 0.317728 7.93551e-21)
(0.864052 0.335026 2.02022e-22)
(0.892517 0.348047 6.72833e-21)
(0.920804 0.356195 -6.32551e-21)
(0.948497 0.360251 2.34247e-21)
(0.975841 0.360983 1.07727e-21)
(1.00151 0.358639 -2.97777e-22)
(1.02488 0.353804 0)
(1.04655 0.347064 0)
(1.06678 0.338785 0)
(1.08515 0.329379 0)
(1.10142 0.319275 -5.18848e-21)
(1.1161 0.308619 -5.43768e-21)
(1.12958 0.297467 1.55239e-20)
(1.14192 0.285945 -1.10681e-20)
(1.15282 0.274438 0)
(1.16241 0.263043 6.14872e-21)
(1.17115 0.251563 -1.02682e-20)
(1.1791 0.240029 1.38788e-20)
(1.18631 0.228475 -2.57158e-20)
(1.19262 0.217194 7.32084e-21)
(1.19814 0.206206 -1.56595e-20)
(1.2031 0.195277 1.56867e-20)
(1.20752 0.184417 -2.89373e-22)
(1.21144 0.173644 4.27941e-21)
(1.21482 0.163108 0)
(1.21772 0.152878 0)
(1.22024 0.142819 -4.34184e-21)
(1.22239 0.132877 4.34982e-21)
(1.22419 0.123066 0)
(1.22555 0.113405 -2.1402e-21)
(0.802619 0.0747137 1.68071e-21)
(0.797865 0.0934698 -2.53821e-21)
(0.793624 0.113902 -1.42634e-21)
(0.790769 0.135907 3.13836e-21)
(0.790297 0.159356 8.74698e-21)
(0.793021 0.18432 7.80473e-21)
(0.799632 0.209253 3.77184e-21)
(0.810166 0.233884 1.49778e-23)
(0.824842 0.25725 0)
(0.842762 0.277704 0)
(0.863641 0.295435 -2.764e-21)
(0.886915 0.309987 0)
(0.910977 0.320444 0)
(0.935324 0.327293 1.48799e-21)
(0.960043 0.33111 -9.18935e-22)
(0.983892 0.331846 -5.73177e-22)
(1.00614 0.3299 4.65414e-22)
(1.02717 0.325854 0)
(1.04713 0.32006 1.77303e-21)
(1.06551 0.312851 3.31285e-21)
(1.08201 0.304619 -6.2601e-21)
(1.09705 0.295587 1.12686e-20)
(1.11096 0.285867 7.78585e-22)
(1.12378 0.275604 -8.27165e-21)
(1.13517 0.265153 5.24898e-21)
(1.14527 0.25464 -9.44745e-21)
(1.15449 0.243939 -1.02899e-20)
(1.16291 0.233091 -5.3137e-21)
(1.17056 0.222149 6.05261e-21)
(1.1773 0.211386 -1.48623e-20)
(1.18321 0.200835 2.47451e-20)
(1.18853 0.190299 3.17127e-22)
(1.1933 0.179794 -2.61026e-20)
(1.19754 0.169342 3.38218e-21)
(1.20122 0.159086 0)
(1.2044 0.149091 1.03629e-20)
(1.20717 0.139231 -3.58608e-21)
(1.20954 0.129458 0)
(1.21153 0.119797 1.81916e-21)
(1.21303 0.110277 2.04551e-21)
(0.826338 0.0743081 -1.45827e-21)
(0.82256 0.0896947 9.17795e-22)
(0.819051 0.106336 3.23295e-22)
(0.816427 0.124196 2.27598e-23)
(0.815431 0.143271 -3.66093e-22)
(0.81668 0.163746 -8.88321e-21)
(0.820821 0.184564 2.88427e-21)
(0.827996 0.205617 -2.83409e-21)
(0.838561 0.22621 2.95718e-21)
(0.852066 0.244963 0)
(0.868378 0.261969 -2.25442e-21)
(0.887192 0.276734 3.56483e-21)
(0.907323 0.288224 -2.04424e-21)
(0.928295 0.296707 3.03977e-21)
(0.950131 0.302586 -1.66356e-21)
(0.97175 0.305593 7.04139e-22)
(0.992396 0.30595 7.04033e-22)
(1.01229 0.304174 0)
(1.03146 0.300571 -1.53143e-21)
(1.0494 0.295377 2.00013e-21)
(1.06574 0.288929 -2.42954e-21)
(1.0808 0.28149 5.50242e-21)
(1.09484 0.273204 -1.17802e-20)
(1.10787 0.26423 6.24807e-21)
(1.11955 0.254878 3.86201e-21)
(1.12996 0.245304 4.1275e-21)
(1.13953 0.235437 -8.55211e-21)
(1.14828 0.225335 1.74471e-20)
(1.15627 0.215059 0)
(1.16333 0.204862 1.49099e-20)
(1.16955 0.194796 -1.46652e-20)
(1.17517 0.184697 1.0495e-20)
(1.18023 0.174588 -7.76244e-21)
(1.18473 0.164493 2.83698e-21)
(1.18867 0.154549 2.71561e-21)
(1.19207 0.14482 -1.84663e-22)
(1.19504 0.135195 -3.01217e-21)
(1.1976 0.125635 0)
(1.19975 0.11617 -1.5104e-21)
(1.20139 0.106835 1.58666e-21)
(0.84569 0.0738852 0)
(0.842705 0.0867973 0)
(0.839868 0.100671 -6.70385e-21)
(0.837635 0.115496 3.8088e-21)
(0.836568 0.131312 -1.91231e-21)
(0.83713 0.148331 9.53099e-21)
(0.839868 0.165814 -7.11287e-21)
(0.844947 0.183754 0)
(0.852745 0.201668 0)
(0.863071 0.218448 4.1047e-21)
(0.875893 0.234161 3.50815e-21)
(0.891087 0.24835 -3.64027e-22)
(0.907822 0.260001 -3.98977e-21)
(0.925694 0.269233 1.95861e-21)
(0.944716 0.27632 2.15769e-21)
(0.963987 0.280859 0)
(0.982797 0.282923 0)
(1.00125 0.282941 0)
(1.01931 0.281155 0)
(1.03647 0.277711 -2.76206e-21)
(1.05232 0.272874 2.79064e-21)
(1.0671 0.266919 5.88218e-21)
(1.08101 0.260007 -8.91656e-21)
(1.09402 0.25229 2.39333e-21)
(1.10578 0.244035 0)
(1.11635 0.235418 -6.37292e-21)
(1.1261 0.226415 6.40652e-21)
(1.13506 0.21709 -3.72471e-21)
(1.14327 0.207516 0)
(1.15057 0.197927 -4.24593e-21)
(1.15702 0.188386 3.97143e-21)
(1.16287 0.178763 1.69951e-20)
(1.16814 0.169085 -1.75885e-20)
(1.17286 0.159384 8.93687e-21)
(1.17699 0.149786 -2.40963e-21)
(1.18058 0.140359 -1.1885e-20)
(1.18372 0.131007 4.82258e-21)
(1.18643 0.121696 2.49613e-21)
(1.18871 0.112461 -3.76879e-21)
(1.19047 0.103337 1.32685e-21)
(0.861802 0.0734011 0)
(0.859453 0.0844281 0)
(0.857194 0.0962115 3.86898e-21)
(0.855374 0.108747 -4.40913e-21)
(0.854429 0.122087 -4.67425e-22)
(0.854708 0.136433 -4.96604e-21)
(0.85666 0.151252 6.04613e-21)
(0.860436 0.166589 1.84695e-21)
(0.866385 0.182113 -5.481e-21)
(0.874456 0.196951 3.39853e-21)
(0.884676 0.211166 -2.93028e-22)
(0.897035 0.224372 -3.11931e-22)
(0.910961 0.235642 -3.02053e-21)
(0.926142 0.245009 -2.30337e-21)
(0.942597 0.252656 -1.06551e-21)
(0.959606 0.258115 2.46437e-22)
(0.976533 0.261348 3.69428e-22)
(0.993411 0.262696 0)
(1.01017 0.262338 -8.58191e-22)
(1.02633 0.260337 1.47947e-21)
(1.04147 0.256888 -2.55533e-21)
(1.05575 0.252256 1.48907e-21)
(1.06931 0.246597 5.26412e-22)
(1.08209 0.240055 2.6167e-21)
(1.09375 0.232853 -4.23556e-21)
(1.10432 0.225173 0)
(1.11412 0.217025 8.07591e-21)
(1.12317 0.208482 -1.42348e-20)
(1.13149 0.199621 1.22006e-20)
(1.13893 0.190656 -9.6963e-21)
(1.14554 0.181664 -6.88746e-21)
(1.15155 0.17254 6.91938e-21)
(1.15697 0.163319 7.43163e-21)
(1.16184 0.154034 -7.45084e-21)
(1.16612 0.144808 3.94067e-21)
(1.16985 0.13571 1.81548e-22)
(1.17312 0.126656 0)
(1.17595 0.117623 0)
(1.17834 0.108642 2.06781e-21)
(1.18021 0.0997529 0)
(0.875423 0.0728422 1.39298e-21)
(0.873585 0.0823935 3.74508e-22)
(0.871812 0.0925525 -3.8264e-22)
(0.870378 0.103316 1.18093e-23)
(0.869627 0.114734 0)
(0.869828 0.126988 2.94768e-21)
(0.871345 0.139678 -1.55118e-21)
(0.874307 0.152873 1.57261e-21)
(0.879017 0.166344 -2.65811e-21)
(0.885495 0.179404 3.04586e-21)
(0.893796 0.192123 -2.86349e-21)
(0.903971 0.204185 0)
(0.915636 0.21478 2.3925e-21)
(0.928559 0.223891 3.95964e-22)
(0.942774 0.231645 -2.27925e-21)
(0.957717 0.237558 2.03495e-21)
(0.972842 0.24152 -9.8794e-22)
(0.988141 0.243793 1.75085e-22)
(1.00353 0.2445 7.69146e-22)
(1.01857 0.243637 -1.32653e-21)
(1.03285 0.241336 0)
(1.04647 0.237836 2.37091e-21)
(1.05952 0.233282 2.48574e-21)
(1.07192 0.227802 0)
(1.08334 0.221575 0)
(1.09376 0.214781 3.76872e-21)
(1.10349 0.207456 2.22282e-21)
(1.11251 0.199675 -2.06687e-21)
(1.12085 0.191518 4.83309e-21)
(1.12833 0.183178 8.07364e-21)
(1.13502 0.174741 -5.49996e-21)
(1.14112 0.166128 0)
(1.14665 0.157377 -6.24475e-21)
(1.15162 0.148524 6.26346e-21)
(1.156 0.139688 3.33019e-21)
(1.15983 0.130937 7.61648e-23)
(1.16319 0.122203 -3.43599e-21)
(1.16611 0.113465 0)
(1.16858 0.104761 -5.39101e-21)
(1.17052 0.0961243 0)
(0.887083 0.072211 -1.8448e-21)
(0.885662 0.0805798 2.11196e-21)
(0.884294 0.089446 2.05449e-21)
(0.8832 0.0988057 -2.39527e-21)
(0.88266 0.108702 -2.41906e-21)
(0.882883 0.119293 -2.70639e-21)
(0.884166 0.130268 -2.47186e-21)
(0.886615 0.141705 2.43619e-21)
(0.890487 0.153443 2.50439e-22)
(0.895832 0.164936 -2.3363e-21)
(0.902718 0.176259 4.38352e-21)
(0.911222 0.18716 -2.63632e-22)
(0.921093 0.196945 -5.70071e-21)
(0.93216 0.205577 3.10398e-21)
(0.944471 0.213145 1.06049e-21)
(0.95759 0.219181 -4.77774e-22)
(0.97106 0.223534 1.31391e-21)
(0.984856 0.226401 1.20378e-22)
(0.998897 0.227859 1.1628e-21)
(1.01278 0.227857 -1.17893e-21)
(1.02613 0.226471 0)
(1.03898 0.223909 0)
(1.05141 0.2203 -2.90971e-22)
(1.06332 0.215751 0)
(1.07437 0.210402 0)
(1.08455 0.204424 -3.41576e-21)
(1.09409 0.197869 -3.41323e-21)
(1.103 0.190812 -3.73468e-21)
(1.11126 0.183331 3.95899e-21)
(1.11872 0.175602 -2.38262e-21)
(1.12541 0.167715 -2.78201e-22)
(1.13154 0.159612 4.85997e-21)
(1.1371 0.151333 0)
(1.14212 0.14292 8.09148e-21)
(1.14656 0.134482 -5.51298e-21)
(1.15045 0.126091 -5.71418e-21)
(1.15387 0.117688 2.93193e-21)
(1.15685 0.109262 -1.53376e-21)
(1.15938 0.100846 4.74636e-21)
(1.16137 0.092478 0)
(0.897173 0.0715153 1.07968e-21)
(0.896093 0.0789183 -8.36185e-22)
(0.895062 0.0867347 -4.79792e-22)
(0.894262 0.0949598 1.97462e-21)
(0.893923 0.103629 2.50646e-21)
(0.894215 0.112877 -1.0578e-21)
(0.895377 0.122456 3.37163e-21)
(0.897499 0.132446 -4.27551e-21)
(0.900795 0.142726 4.22757e-21)
(0.905325 0.152863 2.14459e-21)
(0.911158 0.16293 -2.01956e-21)
(0.918385 0.172728 1.6731e-21)
(0.926837 0.181669 -3.26954e-21)
(0.936394 0.18971 -1.41888e-21)
(0.947111 0.196916 -2.21943e-21)
(0.958655 0.202854 -4.84615e-24)
(0.970649 0.207353 4.71941e-22)
(0.983063 0.210558 -2.47372e-22)
(0.99582 0.212513 -9.77843e-22)
(1.00857 0.213134 2.29143e-21)
(1.02096 0.212454 -6.56172e-22)
(1.03301 0.210648 0)
(1.04475 0.207824 -2.19979e-22)
(1.05609 0.204071 0)
(1.0667 0.199494 0)
(1.07654 0.194251 0)
(1.08582 0.188402 2.80251e-22)
(1.09453 0.182017 1.01647e-20)
(1.10264 0.175174 -1.04499e-20)
(1.11 0.168029 -5.88148e-23)
(1.11664 0.160675 -8.05731e-21)
(1.12274 0.153071 4.3086e-21)
(1.12829 0.14526 -4.1032e-21)
(1.13331 0.137283 -6.91285e-21)
(1.13776 0.129247 -2.31979e-21)
(1.14167 0.12122 4.95845e-21)
(1.14512 0.113157 0)
(1.14812 0.105049 -2.54131e-21)
(1.15069 0.0969332 -3.27617e-21)
(1.15271 0.0888434 6.9502e-22)
(0.905982 0.0707652 8.7237e-22)
(0.905182 0.0773662 0)
(0.904432 0.0843154 -3.54465e-21)
(0.903883 0.0916074 1.7043e-21)
(0.903728 0.09927 2.15928e-21)
(0.904105 0.107417 -4.51352e-22)
(0.905211 0.115848 0)
(0.907121 0.124635 1.88363e-21)
(0.910011 0.133691 -1.86086e-21)
(0.913946 0.142662 1.65559e-21)
(0.918989 0.15162 1.41998e-21)
(0.925231 0.160407 -1.63612e-22)
(0.93256 0.168526 -3.24364e-23)
(0.940892 0.175936 0)
(0.950286 0.182687 2.68933e-21)
(0.960488 0.188388 -2.47155e-21)
(0.971188 0.192862 0)
(0.982357 0.196216 3.70432e-22)
(0.993929 0.198471 1.47732e-22)
(1.0056 0.199522 -1.13682e-21)
(1.01706 0.199368 3.52204e-22)
(1.02829 0.198154 0)
(1.03932 0.19597 1.53795e-21)
(1.05004 0.192884 -1.43071e-21)
(1.06015 0.188972 0)
(1.0696 0.184376 -4.67574e-21)
(1.07856 0.179161 4.93402e-21)
(1.087 0.173392 3.06843e-21)
(1.09491 0.167139 -5.71567e-21)
(1.10211 0.160544 0)
(1.10865 0.153699 2.07184e-22)
(1.11466 0.146576 -6.99835e-21)
(1.12015 0.139219 3.93409e-21)
(1.12513 0.131671 0)
(1.12956 0.124031 2.13451e-21)
(1.13346 0.116369 -2.20777e-21)
(1.13691 0.108647 2.13651e-21)
(1.13991 0.100863 2.34005e-21)
(1.14248 0.0930513 4.6502e-21)
(1.14451 0.0852471 2.35047e-21)
(0.913733 0.0699704 0)
(0.913165 0.0758962 0)
(0.912649 0.0821185 1.25401e-22)
(0.912314 0.0886314 -3.04205e-21)
(0.91232 0.0954559 -1.44062e-22)
(0.912784 0.102689 -1.46091e-21)
(0.91387 0.110163 0)
(0.915639 0.117944 0)
(0.918239 0.125964 -1.45452e-21)
(0.921729 0.133935 1.4872e-21)
(0.92617 0.141923 -1.28706e-22)
(0.931645 0.149801 1.34102e-21)
(0.93808 0.15715 0)
(0.945417 0.163933 0)
(0.953715 0.170189 -1.62864e-21)
(0.962778 0.175571 1.26093e-21)
(0.972355 0.179908 2.1903e-22)
(0.98242 0.183279 2.98474e-22)
(0.992919 0.185685 1.54511e-22)
(1.00359 0.187013 0)
(1.01416 0.187237 5.36397e-22)
(1.02459 0.186476 7.88562e-22)
(1.0349 0.184801 0)
(1.04499 0.182265 1.52479e-21)
(1.05458 0.178918 -3.00117e-21)
(1.0636 0.174885 0)
(1.07219 0.170231 2.19461e-21)
(1.08032 0.165015 -2.41521e-21)
(1.08797 0.159303 7.29669e-21)
(1.09498 0.153218 0)
(1.10136 0.146851 5.85949e-21)
(1.10725 0.140186 3.21856e-21)
(1.11264 0.133265 3.16228e-21)
(1.11754 0.126132 -3.48248e-21)
(1.12192 0.11888 3.50619e-21)
(1.12577 0.111577 0)
(1.12919 0.104195 -1.97633e-21)
(1.13217 0.0967337 0)
(1.13472 0.0892286 -2.0863e-21)
(1.13674 0.0817137 -2.16407e-21)
(0.920597 0.06914 6.47729e-22)
(0.920222 0.0744907 -9.80884e-22)
(0.919903 0.080096 2.93511e-21)
(0.919748 0.0859497 1.37088e-21)
(0.919895 0.0920673 -1.37382e-21)
(0.920442 0.0985311 2.02001e-21)
(0.921525 0.105199 -6.63065e-22)
(0.923198 0.11213 2.46481e-21)
(0.925583 0.119272 1.19173e-21)
(0.928736 0.126382 1.26341e-21)
(0.932709 0.133523 -2.19302e-22)
(0.937579 0.140593 -2.06008e-21)
(0.943296 0.147236 2.10963e-21)
(0.949819 0.15342 -8.23162e-23)
(0.957207 0.159177 -9.80988e-23)
(0.965308 0.1642 -2.11906e-21)
(0.973916 0.16833 7.50062e-22)
(0.98301 0.171625 -5.84791e-22)
(0.992547 0.174074 -2.51306e-22)
(1.00231 0.175562 -1.84365e-22)
(1.01204 0.176046 -4.97403e-22)
(1.02171 0.175622 8.59226e-22)
(1.03133 0.174346 1.37978e-22)
(1.04079 0.172255 0)
(1.04984 0.16938 0)
(1.0584 0.165831 -3.0264e-21)
(1.0666 0.161669 -1.71479e-21)
(1.07439 0.156945 -1.91086e-21)
(1.08175 0.151721 -1.68528e-22)
(1.08852 0.146106 -7.1497e-21)
(1.09471 0.140184 2.26749e-21)
(1.10044 0.133949 0)
(1.10571 0.127442 -5.82921e-21)
(1.1105 0.120707 5.78313e-21)
(1.11479 0.113831 0)
(1.11858 0.106879 3.27063e-21)
(1.12194 0.0998306 -1.60028e-21)
(1.12487 0.092689 -3.43845e-21)
(1.12738 0.0854892 2.64047e-21)
(1.12938 0.0782646 -2.67792e-21)
(0.926712 0.068282 0)
(0.926499 0.0731377 0)
(0.926344 0.0782133 -2.26284e-21)
(0.926341 0.0835032 0)
(0.926608 0.0890176 0)
(0.92723 0.0948269 5.56781e-22)
(0.92832 0.100809 -5.69819e-22)
(0.929924 0.107016 -2.32012e-21)
(0.932147 0.113405 -2.28307e-21)
(0.935037 0.119773 -3.02969e-21)
(0.93864 0.126176 -2.96965e-21)
(0.943025 0.13253 -1.76099e-21)
(0.948159 0.138534 1.84121e-21)
(0.954013 0.144158 3.74549e-22)
(0.960642 0.149431 1.38304e-21)
(0.967927 0.154083 -1.77202e-21)
(0.975699 0.157967 8.38286e-22)
(0.983944 0.161126 -3.43192e-22)
(0.992626 0.163543 0)
(1.00156 0.165103 9.72502e-22)
(1.01052 0.165755 -1.29194e-21)
(1.01948 0.165574 -1.09321e-21)
(1.02843 0.164603 -3.09739e-21)
(1.03727 0.162869 -2.66224e-22)
(1.04579 0.160385 -3.62435e-22)
(1.05389 0.157247 5.33482e-21)
(1.06168 0.153511 1.597e-21)
(1.06911 0.149222 5.07339e-21)
(1.07616 0.144436 -5.56648e-21)
(1.08267 0.139248 2.12205e-21)
(1.08865 0.133737 4.50177e-21)
(1.09419 0.127903 -4.52901e-21)
(1.0993 0.121787 0)
(1.10396 0.11543 -2.68142e-21)
(1.10814 0.108914 0)
(1.11184 0.102302 1.26124e-22)
(1.11512 0.0955796 -2.8797e-21)
(1.11799 0.0887519 0)
(1.12044 0.0818539 3.01254e-21)
(1.1224 0.074918 9.65741e-23)
(0.932187 0.0674034 9.866e-22)
(0.932109 0.0718289 -2.47476e-22)
(0.932093 0.0764458 3.34822e-22)
(0.932218 0.0812483 -7.71026e-24)
(0.932587 0.086243 3.76868e-21)
(0.933274 0.0914898 -4.8192e-22)
(0.934374 0.0968825 -4.6789e-22)
(0.935928 0.102468 -8.58842e-22)
(0.938024 0.108208 -9.10056e-22)
(0.940703 0.113932 2.82228e-21)
(0.944009 0.119691 1.79464e-21)
(0.948 0.125413 0)
(0.952655 0.130841 -2.92338e-21)
(0.957952 0.13595 1.70128e-22)
(0.963944 0.140765 2.21731e-21)
(0.970535 0.14505 8.85427e-22)
(0.977586 0.14867 -5.67684e-22)
(0.985089 0.151656 -1.41556e-22)
(0.993013 0.15399 1.63968e-22)
(1.0012 0.155559 0)
(1.00946 0.156308 6.74888e-22)
(1.01775 0.156296 1.22553e-21)
(1.02607 0.155555 4.47626e-22)
(1.03433 0.154102 -4.80392e-21)
(1.04232 0.151939 -1.92671e-21)
(1.04997 0.149148 0)
(1.05734 0.145779 2.79078e-21)
(1.06441 0.141872 -5.88914e-21)
(1.07112 0.137476 3.38162e-21)
(1.07736 0.132673 -2.39484e-22)
(1.08311 0.12754 3.45064e-21)
(1.08845 0.122078 7.89472e-21)
(1.09338 0.116327 -2.09058e-21)
(1.09789 0.110327 0)
(1.10193 0.104154 -2.30775e-21)
(1.10552 0.0978699 2.56096e-21)
(1.10871 0.0914629 0)
(1.1115 0.0849415 2.5781e-21)
(1.11388 0.0783397 -3.51045e-21)
(1.11578 0.0716892 2.13528e-21)
(0.937111 0.0665102 0)
(0.937147 0.070559 0)
(0.937247 0.0747749 -7.54426e-22)
(0.93748 0.0791528 -6.75083e-24)
(0.937935 0.0836955 -5.22599e-21)
(0.938677 0.0884545 0)
(0.939787 0.0933368 -1.62393e-21)
(0.941301 0.0983831 3.31118e-21)
(0.943294 0.103562 0)
(0.945803 0.108725 0)
(0.948863 0.113918 0)
(0.95253 0.119081 1.29801e-21)
(0.956785 0.123993 -1.20783e-21)
(0.961615 0.128633 -4.44673e-23)
(0.967067 0.133021 -2.84981e-22)
(0.973065 0.136951 -1.37359e-22)
(0.979493 0.140303 4.67878e-23)
(0.986346 0.143098 2.82172e-22)
(0.9936 0.145315 0)
(1.00112 0.146849 0)
(1.00873 0.147643 0)
(1.01642 0.147742 2.83105e-21)
(1.02415 0.14717 -1.88289e-21)
(1.03186 0.145936 3.06227e-21)
(1.03934 0.144034 2.16176e-22)
(1.04654 0.141534 -2.1506e-21)
(1.05351 0.13848 2.16543e-21)
(1.0602 0.134906 -2.70387e-21)
(1.06658 0.130855 5.46383e-21)
(1.07253 0.1264 -2.15263e-22)
(1.07803 0.121611 -3.46256e-21)
(1.08316 0.116492 -2.38079e-22)
(1.08789 0.111082 -1.71316e-21)
(1.09223 0.105418 4.07599e-21)
(1.09614 0.0995712 1.92594e-22)
(1.0996 0.0935997 -2.14586e-21)
(1.10268 0.087497 2.29756e-21)
(1.10537 0.0812728 -7.00976e-21)
(1.10768 0.0749601 1.73424e-21)
(1.1095 0.06859 6.08429e-22)
(0.941557 0.0656076 -3.52952e-22)
(0.941689 0.0693241 5.76047e-22)
(0.941886 0.0731871 2.85535e-21)
(0.942209 0.0771919 1.45774e-21)
(0.942737 0.0813386 1.93963e-21)
(0.943524 0.0856713 -3.74616e-22)
(0.944644 0.0901079 1.25891e-22)
(0.946124 0.0946839 5.77594e-22)
(0.948032 0.0993716 -2.07986e-21)
(0.950397 0.104043 2.67789e-21)
(0.953253 0.108739 -1.21795e-21)
(0.956646 0.113408 1.28709e-23)
(0.960564 0.117858 2.27262e-21)
(0.964998 0.122071 1.89706e-21)
(0.96999 0.126066 -8.34406e-22)
(0.975477 0.129662 -1.25322e-21)
(0.981364 0.132749 -2.05027e-22)
(0.987647 0.135344 8.86945e-22)
(0.994308 0.137425 0)
(1.00123 0.138894 0)
(1.00826 0.139694 4.63288e-22)
(1.01538 0.139861 1.70612e-21)
(1.02257 0.139409 -1.96392e-21)
(1.02975 0.138344 -5.06126e-22)
(1.03676 0.136653 -4.91855e-22)
(1.04353 0.134396 -4.79839e-22)
(1.05009 0.131611 1.65993e-21)
(1.05642 0.128327 2.14429e-21)
(1.06247 0.124582 -5.18694e-21)
(1.06813 0.120439 2.44116e-21)
(1.07338 0.115963 3.03317e-21)
(1.07827 0.11116 -2.44366e-23)
(1.08281 0.106066 2.03995e-22)
(1.08697 0.100717 3.59982e-21)
(1.09072 0.0951777 -1.74168e-21)
(1.09405 0.0895046 -3.85918e-21)
(1.09701 0.0836941 1.97444e-21)
(1.09959 0.077757 2.1434e-21)
(1.10181 0.0717255 -1.31054e-22)
(1.10355 0.0656295 0)
(0.945586 0.0647 1.72399e-21)
(0.945799 0.0681216 -3.41123e-22)
(0.946077 0.0716718 -1.39775e-21)
(0.946476 0.0753466 -1.22601e-21)
(0.947063 0.0791439 -1.66533e-22)
(0.947888 0.0831015 6.43437e-22)
(0.949013 0.0871463 1.93904e-21)
(0.950465 0.0913092 -1.31278e-21)
(0.952299 0.0955658 0)
(0.954541 0.0998045 -1.22805e-21)
(0.957223 0.104061 1.1567e-21)
(0.960384 0.108291 -2.04229e-21)
(0.964014 0.112328 2.74417e-21)
(0.968108 0.116156 -9.54803e-22)
(0.972703 0.11979 -1.20745e-21)
(0.977748 0.123072 1.7909e-21)
(0.983163 0.125905 0)
(0.988944 0.1283 -2.04563e-22)
(0.995078 0.130235 0)
(1.00146 0.131619 2.05703e-22)
(1.00797 0.132398 -1.49756e-21)
(1.01457 0.132598 1.06785e-21)
(1.02126 0.13223 -1.74361e-21)
(1.02796 0.131293 0)
(1.03451 0.129773 -1.2894e-21)
(1.04086 0.127718 0)
(1.04704 0.125163 -3.75195e-21)
(1.05301 0.122131 3.77758e-21)
(1.05874 0.118656 0)
(1.0641 0.114793 -4.99586e-21)
(1.06909 0.110601 -1.72244e-22)
(1.07376 0.106088 2.68071e-21)
(1.07808 0.101287 -2.87936e-21)
(1.08206 0.0962314 0)
(1.08564 0.090983 0)
(1.08883 0.0855936 0)
(1.09166 0.0800627 5.26153e-21)
(1.09413 0.0744022 -1.81746e-21)
(1.09625 0.0686431 -1.16519e-22)
(1.09791 0.0628141 0)
(0.949249 0.0637913 -3.06141e-22)
(0.94953 0.0669495 -3.03546e-22)
(0.949876 0.070221 1.15177e-21)
(0.950337 0.0736022 -1.14232e-21)
(0.950973 0.0770892 -2.89151e-22)
(0.951829 0.0807146 1.39993e-21)
(0.952956 0.0844127 -6.28571e-22)
(0.95438 0.0882107 5.15371e-22)
(0.956149 0.0920866 -2.12134e-21)
(0.958285 0.0959422 -9.81578e-22)
(0.960815 0.0998089 0)
(0.963776 0.103648 -8.39534e-22)
(0.967157 0.107315 8.43445e-24)
(0.970956 0.110794 5.44985e-22)
(0.975207 0.1141 -1.29605e-21)
(0.979866 0.117092 0)
(0.984865 0.119683 0)
(0.990202 0.121882 -4.37219e-22)
(0.995867 0.123667 3.49574e-22)
(1.00177 0.124955 -1.78097e-23)
(1.0078 0.125693 7.44081e-22)
(1.01394 0.125903 -1.11458e-21)
(1.02015 0.125589 -7.01262e-22)
(1.0264 0.12475 -2.13652e-21)
(1.03253 0.123366 3.38081e-21)
(1.03849 0.121479 2.93223e-21)
(1.0443 0.11912 -7.79553e-21)
(1.04992 0.116308 5.05434e-21)
(1.05533 0.113072 4.06678e-21)
(1.0604 0.10946 -2.0324e-21)
(1.06514 0.105526 0)
(1.06957 0.101278 2.39602e-21)
(1.07368 0.096748 0)
(1.07747 0.0919673 0)
(1.08088 0.0869923 2.97219e-21)
(1.08392 0.0818721 -5.94948e-21)
(1.08662 0.0766083 -6.34628e-21)
(1.08897 0.0712134 -3.18521e-21)
(1.09098 0.0657174 -2.9604e-21)
(1.09256 0.0601477 -4.19989e-22)
(0.952589 0.0628846 0)
(0.952926 0.0658066 0)
(0.953329 0.0688284 -2.13136e-21)
(0.953841 0.0719468 7.78537e-23)
(0.954517 0.0751568 1.00143e-21)
(0.955396 0.0784863 -1.06204e-21)
(0.956523 0.0818761 9.6715e-22)
(0.95792 0.0853499 0)
(0.95963 0.0888877 9.8129e-22)
(0.961672 0.0924029 2.65731e-21)
(0.964069 0.0959228 -1.60873e-21)
(0.966853 0.0994139 -1.48264e-21)
(0.970017 0.102748 0)
(0.973558 0.105912 1.16095e-21)
(0.977507 0.108918 1.85097e-21)
(0.981827 0.111643 -1.64407e-21)
(0.986458 0.114007 1.07725e-22)
(0.991402 0.116018 7.76221e-22)
(0.996648 0.117654 3.99358e-23)
(1.00212 0.11884 -1.08599e-21)
(1.00772 0.119525 -1.78937e-22)
(1.01342 0.119726 5.39918e-23)
(1.01921 0.119445 7.9678e-23)
(1.02504 0.118677 1.9028e-21)
(1.03077 0.117403 3.39188e-22)
(1.03636 0.115657 -2.03855e-21)
(1.04181 0.113466 -1.42468e-21)
(1.04711 0.110845 -1.94157e-21)
(1.0522 0.10782 3.30772e-21)
(1.057 0.104433 -1.96512e-21)
(1.06148 0.100733 0)
(1.06568 0.0967295 -1.04068e-23)
(1.06958 0.0924502 -6.94584e-21)
(1.07317 0.0879257 -1.14104e-22)
(1.07641 0.0832077 2.54513e-21)
(1.0793 0.0783425 2.80526e-21)
(1.08186 0.0733333 2.91672e-21)
(1.08409 0.0681931 3.02114e-21)
(1.08599 0.0629507 4.48698e-21)
(1.08748 0.0576321 0)
(0.955642 0.0619827 1.76269e-23)
(0.956025 0.0646919 -9.34619e-22)
(0.956475 0.067489 9.86365e-22)
(0.95703 0.0703712 -1.07283e-21)
(0.957738 0.0733326 -7.27566e-22)
(0.958633 0.0763971 0)
(0.959757 0.0795113 -9.26926e-22)
(0.961128 0.0826956 0)
(0.962783 0.0859319 1.59197e-21)
(0.964739 0.0891431 -1.64535e-21)
(0.967017 0.0923533 1.53778e-21)
(0.969646 0.0955325 1.4162e-21)
(0.972617 0.0985677 1.16361e-21)
(0.97593 0.101447 -1.49684e-22)
(0.979612 0.104181 -1.88285e-21)
(0.983632 0.106659 1.54084e-22)
(0.987937 0.108813 8.42365e-23)
(0.992528 0.110645 0)
(0.997399 0.112136 2.49614e-22)
(1.00248 0.113217 -2.01171e-22)
(1.00769 0.113842 7.76894e-22)
(1.013 0.114022 -9.06989e-22)
(1.01839 0.113757 3.57043e-21)
(1.02383 0.113042 0)
(1.0292 0.111855 0)
(1.03443 0.110227 1.32896e-22)
(1.03955 0.108179 -2.57461e-21)
(1.04453 0.105726 0)
(1.04932 0.102888 -2.24585e-22)
(1.05385 0.0997039 3.25793e-21)
(1.05808 0.0962172 -2.25943e-22)
(1.06205 0.0924373 3.80389e-21)
(1.06574 0.0883905 2.158e-21)
(1.06914 0.0841049 -4.39917e-21)
(1.07221 0.0796285 -9.33186e-23)
(1.07495 0.0750048 2.38248e-21)
(1.07737 0.0702381 0)
(1.07948 0.0653418 1.21579e-21)
(1.08127 0.0603433 -1.45218e-21)
(1.08265 0.0552675 -2.60414e-21)
(0.958439 0.0610881 3.43815e-23)
(0.958861 0.0636047 1.55023e-21)
(0.95935 0.0661986 -2.14738e-22)
(0.959939 0.0688676 1.5383e-21)
(0.960671 0.0716049 5.99601e-22)
(0.961578 0.0744312 4.09246e-22)
(0.962695 0.0772979 -1.52567e-21)
(0.964039 0.0802226 0)
(0.965643 0.0831888 -2.93487e-21)
(0.967521 0.0861276 0)
(0.969692 0.0890601 0)
(0.972181 0.0919593 0)
(0.97498 0.0947252 -2.1278e-21)
(0.978089 0.0973468 0)
(0.981534 0.099833 5.89837e-23)
(0.985285 0.102086 1.67191e-21)
(0.989298 0.104044 -8.19918e-22)