# p  FACE_DATA 180
#  x  y  z  p
-0.49912 -0.0178469 0.5 0.731558
-0.496703 -0.0110232 0.5 0.494758
-0.492976 -0.00470316 0.5 0.260189
-0.488305 0.00101201 0.5 0.0768618
-0.483079 0.00619137 0.5 -0.0558318
-0.477364 0.0110256 0.5 -0.157626
-0.471461 0.0154276 0.5 -0.235377
-0.465306 0.0195404 0.5 -0.296506
-0.4589 0.0234414 0.5 -0.345498
-0.452528 0.0270077 0.5 -0.380635
-0.445952 0.0304188 0.5 -0.407143
-0.439149 0.0337051 0.5 -0.428337
-0.432452 0.0367332 0.5 -0.444204
-0.42574 0.0395854 0.5 -0.457205
-0.41874 0.0423878 0.5 -0.469462
-0.411728 0.0450352 0.5 -0.479989
-0.404865 0.0474841 0.5 -0.487862
-0.397915 0.0498366 0.5 -0.494915
-0.390751 0.0521356 0.5 -0.501803
-0.383559 0.0543232 0.5 -0.507819
-0.376523 0.0563547 0.5 -0.512191
-0.369482 0.0582886 0.5 -0.516058
-0.362276 0.0601709 0.5 -0.519942
-0.354912 0.0619957 0.5 -0.523528
-0.347677 0.0636973 0.5 -0.526143
-0.340599 0.0652782 0.5 -0.527849
-0.333405 0.0668064 0.5 -0.529717
-0.326085 0.0682825 0.5 -0.531618
-0.318645 0.0697025 0.5 -0.533272
-0.31134 0.0710223 0.5 -0.534313
-0.30418 0.0722464 0.5 -0.534878
-0.296921 0.0734217 0.5 -0.535714
-0.289562 0.0745469 0.5 -0.536706
-0.28211 0.0756193 0.5 -0.537674
-0.274704 0.0766147 0.5 -0.538449
-0.267401 0.0775122 0.5 -0.537801
-0.260063 0.0783355 0.5 -0.53339
-0.252654 0.0791184 0.5 -0.52777
-0.245219 0.0798859 0.5 -0.524487
-0.2378 0.080663 0.5 -0.524174
-0.224839 0.0817289 0.5 -0.538231
-0.206269 0.0830322 0.5 -0.523872
-0.187674 0.0840951 0.5 -0.521239
-0.169064 0.084806 0.5 -0.51768
-0.150345 0.0852257 0.5 -0.511195
-0.131676 0.08537 0.5 -0.504809
-0.113021 0.0852486 0.5 -0.498815
-0.0943277 0.084875 0.5 -0.492926
-0.0756917 0.084257 0.5 -0.487019
-0.0570011 0.0834008 0.5 -0.48089
-0.0383534 0.0823192 0.5 -0.474933
-0.0197504 0.0810174 0.5 -0.468847
-0.00112107 0.0795021 0.5 -0.462521
0.0174734 0.0777822 0.5 -0.456378
0.0360496 0.0758617 0.5 -0.449825
0.0546122 0.0737509 0.5 -0.443138
0.0731526 0.0714525 0.5 -0.436579
0.0916487 0.0689774 0.5 -0.429546
0.110146 0.0663258 0.5 -0.422695
0.128625 0.0635019 0.5 -0.415694
0.147048 0.0605228 0.5 -0.408361
0.165487 0.0573791 0.5 -0.401417
0.183835 0.0540934 0.5 -0.394024
0.202198 0.0506563 0.5 -0.386564
0.220585 0.0470661 0.5 -0.379202
0.238853 0.0433596 0.5 -0.371264
0.257171 0.0395065 0.5 -0.363562
0.275342 0.0355523 0.5 -0.355291
0.293582 0.0314574 0.5 -0.346796
0.311841 0.0272353 0.5 -0.338028
0.330014 0.022917 0.5 -0.328599
0.348196 0.0184857 0.5 -0.319057
0.36633 0.0139572 0.5 -0.308603
0.384412 0.00933809 0.5 -0.297712
0.402529 0.00460539 0.5 -0.285524
0.420474 -0.00018151 0.5 -0.272409
0.438458 -0.00509393 0.5 -0.257225
0.456725 -0.0102191 0.5 -0.240261
0.474747 -0.0154967 0.5 -0.215349
0.491852 -0.0216996 0.5 -0.202436
-0.269191 -0.062892 0.5 0.15007
-0.275538 -0.0632599 0.5 0.149887
-0.281914 -0.0636378 0.5 0.149383
-0.288285 -0.0640136 0.5 0.148013
-0.294613 -0.0643754 0.5 0.146564
-0.300863 -0.0647111 0.5 0.145686
-0.307004 -0.0650089 0.5 0.14599
-0.313327 -0.0652771 0.5 0.147318
-0.319845 -0.0655212 0.5 0.148896
-0.326263 -0.0657323 0.5 0.150584
-0.332578 -0.0659087 0.5 0.152534
-0.338786 -0.0660487 0.5 0.154733
-0.344885 -0.0661508 0.5 0.157192
-0.351121 -0.066215 0.5 0.160371
-0.357596 -0.0662389 0.5 0.164268
-0.364053 -0.0662174 0.5 0.168639
-0.370372 -0.0661484 0.5 0.173536
-0.37655 -0.0660305 0.5 0.178949
-0.382602 -0.0658618 0.5 0.184983
-0.388925 -0.0656228 0.5 0.192819
-0.395479 -0.0653072 0.5 0.202366
-0.401845 -0.0649267 0.5 0.212831
-0.408019 -0.0644808 0.5 0.224358
-0.414058 -0.0639631 0.5 0.237454
-0.420377 -0.0633227 0.5 0.254443
-0.426881 -0.0625531 0.5 0.275236
-0.433116 -0.0616939 0.5 0.298223
-0.439078 -0.0607466 0.5 0.324215
-0.445269 -0.0596051 0.5 0.358208
-0.451674 -0.0582403 0.5 0.401101
-0.457727 -0.0567413 0.5 0.449298
-0.463645 -0.0550329 0.5 0.507398
-0.469708 -0.0529719 0.5 0.581406
-0.47554 -0.0506191 0.5 0.666012
-0.481121 -0.0478748 0.5 0.762627
-0.486533 -0.0445602 0.5 0.868088
-0.49139 -0.0406721 0.5 0.962388
-0.495497 -0.0360174 0.5 1.0203
-0.498337 -0.0305615 0.5 1.01518
-0.499668 -0.0245218 0.5 0.926702
0.493989 -0.0255671 0.5 0.0617451
0.481661 -0.0256584 0.5 0.127433
0.468743 -0.0250493 0.5 0.175291
0.455903 -0.0243816 0.5 0.211902
0.443086 -0.0237407 0.5 0.235781
0.43032 -0.0231534 0.5 0.253794
0.417436 -0.0226209 0.5 0.266368
0.404557 -0.0221623 0.5 0.275077
0.392009 -0.0217848 0.5 0.281998
0.378964 -0.0214625 0.5 0.286473
0.366089 -0.0212219 0.5 0.289204
0.353553 -0.0210565 0.5 0.291405
0.340652 -0.0209519 0.5 0.29245
0.327676 -0.0209217 0.5 0.292192
0.31499 -0.0209615 0.5 0.291689
0.302291 -0.0210626 0.5 0.290834
0.289292 -0.0212313 0.5 0.289292
0.276404 -0.021465 0.5 0.28716
0.263762 -0.0217556 0.5 0.284961
0.251008 -0.0221051 0.5 0.28258
0.238056 -0.0225182 0.5 0.279872
0.225182 -0.0229871 0.5 0.276825
0.212496 -0.0235049 0.5 0.273635
0.199757 -0.0240769 0.5 0.270334
0.186884 -0.0247052 0.5 0.266956
0.174002 -0.0253829 0.5 0.263477
0.161252 -0.026102 0.5 0.259783
0.148534 -0.0268664 0.5 0.25596
0.135727 -0.0276797 0.5 0.252134
0.122864 -0.0285371 0.5 0.248385
0.110074 -0.0294292 0.5 0.244539
0.0973497 -0.0303577 0.5 0.240472
0.0845803 -0.0313282 0.5 0.236355
0.0717868 -0.032334 0.5 0.232388
0.0590033 -0.0333678 0.5 0.228601
0.0462363 -0.034431 0.5 0.224542
0.0334662 -0.0355272 0.5 0.220339
0.0206994 -0.0366506 0.5 0.216213
0.0079632 -0.0377921 0.5 0.212396
-0.0047917 -0.0389536 0.5 0.208621
-0.0175901 -0.0401414 0.5 0.204485
-0.0303693 -0.0413491 0.5 0.200314
-0.0430918 -0.0425653 0.5 0.19642
-0.0557889 -0.0437854 0.5 0.192906
-0.068574 -0.0450224 0.5 0.189069
-0.0814004 -0.0462753 0.5 0.185041
-0.0941401 -0.0475251 0.5 0.1812
-0.106769 -0.0487602 0.5 0.17787
-0.119516 -0.0499993 0.5 0.174589
-0.132401 -0.0512485 0.5 0.170935
-0.145178 -0.0524814 0.5 0.167415
-0.157806 -0.0536836 0.5 0.164431
-0.170519 -0.0548698 0.5 0.161815
-0.183408 -0.056051 0.5 0.15878
-0.196219 -0.0572023 0.5 0.1556
-0.208833 -0.058302 0.5 0.15278
-0.221521 -0.0593569 0.5 0.151451
-0.23434 -0.0603605 0.5 0.150815
-0.24704 -0.0613079 0.5 0.147794
-0.259692 -0.0622418 0.5 0.144835
