/*--------------------------------*- C++ -*----------------------------------*\
| =========                 |                                                 |
| \\      /  F ield         | OpenFOAM: The Open Source CFD Toolbox           |
|  \\    /   O peration     | Version:  3.0.1                                 |
|   \\  /    A nd           | Web:      www.OpenFOAM.org                      |
|    \\/     M anipulation  |                                                 |
\*---------------------------------------------------------------------------*/
FoamFile
{
    version     2.0;
    format      ascii;
    class       volScalarField;
    location    "500";
    object      nut;
}
// * * * * * * * * * * * * * * * * * * * * * * * * * * * * * * * * * * * * * //

dimensions      [0 2 -1 0 0 0 0];

internalField   nonuniform List<scalar> 
58000
(
0.000785171
0.000731433
0.000657891
0.000590255
0.000536788
0.000494996
0.000466316
0.000443042
0.00042717
0.000417313
0.000410116
0.000405817
0.000404602
0.000403159
0.000401736
0.000401118
0.000401405
0.000402272
0.000403487
0.000405094
0.000407135
0.000409396
0.00041187
0.000414336
0.000416997
0.000419523
0.00042207
0.000424596
0.00042695
0.000429264
0.000431284
0.00043311
0.000434683
0.000435934
0.000436933
0.000437157
0.000436356
0.000435126
0.000433856
0.00043422
0.00292788
0.00260926
0.0022548
0.00193268
0.00167394
0.00146909
0.00131262
0.00118775
0.00109166
0.00102009
0.000963528
0.000920599
0.000888625
0.000862713
0.000839062
0.000820515
0.000806707
0.000794734
0.000783484
0.000774312
0.000767731
0.00076211
0.000756943
0.000751936
0.000748687
0.000745771
0.000742887
0.000739976
0.00073686
0.000734465
0.000732167
0.000728561
0.000723725
0.000717917
0.000711563
0.000703847
0.000695607
0.000687793
0.000680939
0.000678363
0.00515016
0.00476839
0.00432011
0.00384901
0.00341839
0.00304464
0.00274673
0.0025016
0.00230409
0.00215076
0.00202677
0.00192512
0.00184888
0.00178798
0.00173601
0.00169588
0.00166592
0.00164111
0.00161917
0.0016018
0.00158922
0.00157847
0.00156841
0.00155841
0.00155106
0.00154333
0.00153441
0.00152451
0.00151362
0.0015042
0.00149471
0.00148469
0.00147416
0.00146277
0.00145036
0.00143545
0.00141851
0.00140125
0.00138529
0.00137704
0.00736572
0.00694388
0.00642904
0.00588498
0.00536107
0.00487072
0.00445434
0.00409629
0.00379806
0.00356052
0.00336092
0.00319452
0.00306583
0.00296096
0.0028702
0.00279819
0.00274243
0.00269568
0.00265451
0.00262114
0.00259557
0.00257336
0.00255119
0.00252856
0.00251053
0.00249407
0.00247739
0.00246022
0.00244199
0.00242531
0.00240812
0.00238962
0.00236989
0.00234901
0.00232786
0.0023039
0.00227735
0.00225013
0.00222439
0.00220696
0.0095574
0.00911483
0.00856609
0.00797733
0.0073907
0.00683003
0.00633161
0.00588382
0.00549543
0.00517569
0.00490015
0.00466519
0.00447899
0.00432453
0.00418931
0.00407993
0.00399338
0.0039196
0.00385364
0.00379851
0.00375362
0.00371367
0.0036761
0.00363965
0.00361053
0.0035831
0.00355498
0.00352603
0.00349604
0.00346986
0.00344312
0.00341452
0.0033841
0.003352
0.00332001
0.003285
0.00324691
0.00320781
0.00317039
0.00314146
0.0117214
0.0112665
0.0106998
0.0100827
0.00946111
0.00885162
0.00829589
0.0077848
0.00732585
0.00693615
0.00659222
0.00629199
0.00604814
0.00584236
0.00565999
0.00550924
0.00538724
0.00528215
0.00518639
0.00510439
0.00503742
0.00497799
0.00492305
0.00486903
0.00482314
0.00478124
0.00473981
0.00469841
0.00465541
0.00461583
0.00457695
0.00453708
0.00449479
0.0044502
0.0044057
0.004358
0.0043068
0.00425429
0.00420354
0.00416115
0.013861
0.0133986
0.0128231
0.0121907
0.0115483
0.0109069
0.0103118
0.00975089
0.00923876
0.00879394
0.00839299
0.00803383
0.00773563
0.00747987
0.00725128
0.00705786
0.00689781
0.00675716
0.00662942
0.00651953
0.0064292
0.00634737
0.00626996
0.00619598
0.00613347
0.00607562
0.00601838
0.00596099
0.00590346
0.00584989
0.0057973
0.00574394
0.00568776
0.00562892
0.00557022
0.0055083
0.00544259
0.00537532
0.00530983
0.00525241
0.0159797
0.0155126
0.0149328
0.0142929
0.0136388
0.0129777
0.0123545
0.01176
0.0112072
0.0107152
0.010265
0.00985742
0.00951174
0.00920961
0.00893435
0.00869898
0.00850196
0.00832709
0.0081671
0.00802818
0.00791031
0.0078042
0.00770421
0.00760928
0.00752633
0.00745034
0.00737656
0.00730242
0.00722758
0.0071588
0.0070912
0.00702256
0.00695094
0.00687651
0.00680229
0.0067249
0.00664351
0.00656035
0.0064789
0.00640512
0.0180812
0.0176108
0.0170294
0.016386
0.0157254
0.0150534
0.014412
0.0137938
0.0132087
0.0126826
0.0121936
0.0117428
0.0113545
0.0110105
0.0106936
0.0104189
0.0101868
0.00997807
0.00978515
0.00961498
0.00946953
0.009339
0.00921515
0.00909652
0.008993
0.00889746
0.00880396
0.00871204
0.00861929
0.00853348
0.00844909
0.00836277
0.00827485
0.008184
0.00809328
0.00799941
0.00790132
0.00780125
0.0077028
0.00761155
0.0201683
0.0196957
0.0191142
0.0184697
0.0178044
0.0171279
0.0164756
0.0158416
0.0152337
0.0146803
0.0141585
0.013674
0.0132502
0.0128694
0.0125147
0.0122028
0.0119345
0.0116924
0.011468
0.0112691
0.0110961
0.0109387
0.010791
0.0106487
0.0105221
0.0104063
0.0102929
0.0101814
0.0100693
0.00996495
0.00986274
0.00975862
0.00965312
0.00954484
0.00943656
0.00932518
0.00920944
0.00909156
0.00897517
0.00886553
0.0222436
0.0217694
0.021189
0.0205456
0.0198795
0.0192001
0.0185406
0.0178956
0.0172716
0.0166962
0.0161504
0.015638
0.0151837
0.0147696
0.0143811
0.0140359
0.0137353
0.0134628
0.0132077
0.0129784
0.0127777
0.012595
0.0124213
0.0122557
0.0121064
0.0119682
0.0118343
0.0117013
0.0115694
0.011445
0.0113249
0.0112026
0.011079
0.0109534
0.0108264
0.0106964
0.0105622
0.0104258
0.0102908
0.010162
0.0243089
0.0238336
0.0232549
0.022614
0.0219489
0.021269
0.0206049
0.0199508
0.019317
0.018726
0.0181609
0.0176239
0.0171433
0.0167032
0.0162863
0.0159113
0.0155807
0.0152772
0.0149926
0.0147359
0.0145085
0.0142989
0.0141003
0.0139094
0.0137376
0.0135773
0.0134222
0.013268
0.013114
0.0129702
0.0128311
0.0126893
0.012547
0.0124025
0.0122566
0.0121079
0.0119549
0.0117995
0.0116453
0.0114969
0.026366
0.0258898
0.0253132
0.0246753
0.0240126
0.0233338
0.0226679
0.0220087
0.0213672
0.0207644
0.0201844
0.0196285
0.0191263
0.0186626
0.01822
0.0178182
0.0174607
0.01713
0.0168174
0.0165323
0.0162794
0.0160445
0.0158201
0.0156053
0.0154089
0.0152256
0.0150496
0.0148744
0.0146993
0.0145353
0.0143765
0.0142149
0.0140528
0.0138888
0.0137237
0.0135559
0.0133837
0.013209
0.0130352
0.0128667
0.0284163
0.0279391
0.0273646
0.0267302
0.0260707
0.0253941
0.0247281
0.0240664
0.0234195
0.0228076
0.0222156
0.021645
0.0211248
0.0206404
0.0201738
0.0197477
0.0193656
0.0190111
0.0186734
0.0183623
0.0180829
0.017824
0.0175757
0.0173371
0.0171171
0.0169105
0.0167112
0.0165155
0.0163196
0.0161351
0.0159564
0.0157747
0.0155919
0.0154086
0.0152242
0.0150372
0.0148456
0.0146512
0.0144575
0.0142685
0.0304614
0.0299825
0.0294101
0.0287794
0.0281236
0.02745
0.026785
0.0261225
0.0254721
0.0248532
0.0242503
0.0236689
0.0231342
0.0226311
0.0221466
0.0216999
0.0212952
0.0209156
0.0205533
0.0202188
0.0199149
0.0196311
0.0193601
0.019098
0.0188551
0.0186262
0.0184039
0.0181875
0.0179709
0.0177649
0.0175666
0.0173654
0.0171627
0.0169598
0.0167557
0.0165491
0.0163378
0.0161236
0.0159096
0.0156999
0.0324981
0.0320192
0.0314496
0.0308231
0.0301715
0.0295016
0.0288386
0.0281764
0.0275243
0.0269006
0.0262902
0.0256992
0.025152
0.0246345
0.0241339
0.0236691
0.0232444
0.0228428
0.0224567
0.0220972
0.0217691
0.0214632
0.0211692
0.0208819
0.0206172
0.0203686
0.0201252
0.0198867
0.0196504
0.0194239
0.0192045
0.0189843
0.0187621
0.0185395
0.0183156
0.0180892
0.017858
0.0176236
0.0173891
0.0171584
0.0345289
0.0340502
0.0334838
0.0328619
0.0322148
0.031549
0.0308886
0.0302277
0.0295751
0.0289483
0.0283325
0.0277335
0.0271744
0.0266459
0.0261319
0.0256513
0.0252086
0.0247868
0.0243775
0.0239966
0.023646
0.0233162
0.0229998
0.0226917
0.0224056
0.0221367
0.0218725
0.0216129
0.0213564
0.0211096
0.0208698
0.0206298
0.0203878
0.0201453
0.0199014
0.019655
0.0194037
0.019149
0.0188939
0.018642
0.0365545
0.0360762
0.0355132
0.0348961
0.0342539
0.0335925
0.0329352
0.0322763
0.0316241
0.0309954
0.0303759
0.029771
0.0292032
0.0286642
0.0281381
0.0276434
0.0271843
0.0267445
0.0263148
0.0259119
0.0255416
0.0251906
0.0248533
0.0245239
0.0242167
0.0239275
0.0236427
0.0233624
0.0230861
0.0228191
0.0225591
0.0222993
0.0220374
0.0217747
0.0215108
0.0212444
0.0209729
0.0206978
0.020422
0.0201489
0.0385751
0.0380974
0.0375379
0.0369261
0.0362892
0.0356323
0.0349784
0.034322
0.0336709
0.0330414
0.0324193
0.0318101
0.0312352
0.0306873
0.0301506
0.0296429
0.0291688
0.0287128
0.0282651
0.0278427
0.0274537
0.0270816
0.0267223
0.026374
0.0260467
0.0257375
0.0254328
0.0251324
0.0248364
0.0245496
0.0242696
0.0239901
0.0237083
0.0234256
0.0231416
0.0228551
0.0225635
0.0222681
0.0219717
0.0216773
0.0405906
0.0401138
0.039558
0.0389516
0.0383215
0.0376684
0.037018
0.0363645
0.0357153
0.0350857
0.0344621
0.0338497
0.0332692
0.0327136
0.0321676
0.0316483
0.0311591
0.0306891
0.0302254
0.0297851
0.0293761
0.0289861
0.0286076
0.0282404
0.0278932
0.0275632
0.0272398
0.0269201
0.0266049
0.0262986
0.025999
0.0257
0.0253984
0.0250956
0.0247917
0.0244854
0.0241739
0.0238583
0.0235412
0.0232257
0.0426011
0.0421252
0.0415732
0.040972
0.0403475
0.0396998
0.0390536
0.0384036
0.0377568
0.037128
0.0365039
0.0358893
0.0353042
0.034742
0.034188
0.0336588
0.0331575
0.0326724
0.0321945
0.0317378
0.0313111
0.0309032
0.0305061
0.0301205
0.0297543
0.0294049
0.0290626
0.0287238
0.0283893
0.0280639
0.0277452
0.0274271
0.0271058
0.0267823
0.0264594
0.0261338
0.0258026
0.0254669
0.0251293
0.0247927
0.0446064
0.0441317
0.0435836
0.0429876
0.0423685
0.0417264
0.041085
0.040439
0.0397951
0.0391679
0.0385443
0.0379283
0.0373397
0.0367715
0.0362103
0.0356726
0.0351624
0.0346649
0.0341713
0.0336986
0.0332562
0.0328305
0.0324153
0.0320115
0.0316273
0.0312595
0.030899
0.0305413
0.0301868
0.0298435
0.0295064
0.0291697
0.0288294
0.0284864
0.0281442
0.0277992
0.0274483
0.0270925
0.0267346
0.026377
0.0466061
0.046133
0.0455891
0.0449988
0.0443849
0.0437484
0.0431121
0.0424707
0.0418299
0.0412047
0.0405835
0.0399659
0.0393755
0.0388011
0.0382331
0.0376873
0.0371675
0.0366588
0.0361521
0.0356646
0.0352052
0.0347644
0.0343326
0.0339106
0.0335101
0.0331252
0.0327472
0.0323714
0.0319983
0.0316369
0.0312815
0.0309264
0.0305676
0.030206
0.0298446
0.0294801
0.0291096
0.0287339
0.0283556
0.0279772
0.0485998
0.0481285
0.0475893
0.0470058
0.0463962
0.0457653
0.0451344
0.0444991
0.0438606
0.0432372
0.0426173
0.0419996
0.0414073
0.0408288
0.0402553
0.0397021
0.0391732
0.0386539
0.0381355
0.0376347
0.0371606
0.0367048
0.0362573
0.0358189
0.0354021
0.0350003
0.0346054
0.0342121
0.0338213
0.0334421
0.0330688
0.0326957
0.0323189
0.0319399
0.031559
0.031175
0.030785
0.0303896
0.0299912
0.0295922
0.0505868
0.0501177
0.0495832
0.0490051
0.0484013
0.0477763
0.0471509
0.0465206
0.0458861
0.045265
0.0446467
0.0440295
0.0434359
0.0428544
0.0422763
0.0417163
0.0411788
0.0406497
0.0401203
0.0396074
0.0391198
0.03865
0.0381877
0.0377338
0.0373014
0.0368834
0.036472
0.0360619
0.035654
0.0352575
0.0348666
0.0344759
0.0340813
0.0336844
0.0332849
0.0328821
0.032473
0.0320582
0.0316401
0.0312208
0.0525665
0.0521
0.0515713
0.0509977
0.0503996
0.0497812
0.0491618
0.0485363
0.0479061
0.0472881
0.0466717
0.0460558
0.0454615
0.0448781
0.0442957
0.0437295
0.0431837
0.0426448
0.0421055
0.0415814
0.0410813
0.0405984
0.0401221
0.0396537
0.0392063
0.0387727
0.0383455
0.0379192
0.0374947
0.0370816
0.0366737
0.0362657
0.0358536
0.035439
0.0350214
0.0346002
0.0341725
0.0337387
0.0333012
0.0328619
0.0545379
0.0540742
0.0535501
0.0529822
0.0523906
0.0517793
0.0511674
0.0505462
0.0499205
0.0493062
0.0486923
0.0480781
0.0474837
0.0469
0.0463135
0.0457411
0.0451872
0.0446377
0.0440898
0.0435555
0.0430438
0.0425485
0.0420591
0.041577
0.0411153
0.0406667
0.0402242
0.0397824
0.0393422
0.0389129
0.0384885
0.0380638
0.0376347
0.0372026
0.0367674
0.0363283
0.0358823
0.03543
0.0349735
0.0345147
0.0565002
0.0560408
0.0555202
0.0549583
0.0543736
0.0537697
0.0531641
0.0525485
0.0519284
0.0513195
0.0507076
0.0500965
0.0495009
0.0489159
0.0483283
0.0477503
0.0471889
0.0466303
0.046073
0.0455287
0.045006
0.044499
0.0439973
0.0435023
0.043027
0.042564
0.0421066
0.0416502
0.041195
0.0407504
0.04031
0.039869
0.0394233
0.0389743
0.0385218
0.0380652
0.0376015
0.0371311
0.0366561
0.0361782
0.058452
0.0579958
0.0574805
0.0569253
0.0563481
0.0557529
0.0551526
0.0545431
0.0539288
0.0533241
0.0527153
0.0521068
0.051512
0.0509257
0.0503361
0.0497554
0.0491876
0.0486196
0.0480533
0.0474995
0.0469665
0.0464486
0.0459354
0.0454283
0.0449401
0.0444632
0.0439906
0.0435215
0.0430524
0.0425928
0.0421369
0.0416801
0.0412183
0.040753
0.0402838
0.0398102
0.0393292
0.0388412
0.0383481
0.0378515
0.060393
0.05994
0.0594306
0.0588827
0.0583133
0.0577254
0.0571318
0.0565291
0.0559222
0.0553209
0.0547158
0.0541098
0.0535173
0.0529292
0.052337
0.0517517
0.0511775
0.0506025
0.0500286
0.0494664
0.048924
0.048396
0.0478721
0.0473538
0.0468536
0.0463639
0.0458778
0.0453956
0.0449128
0.0444389
0.0439682
0.0434962
0.0430188
0.0425375
0.0420522
0.0415622
0.0410644
0.0405594
0.0400487
0.0395341
0.0623224
0.0618732
0.06137
0.0608302
0.0602695
0.0596879
0.0591012
0.0585056
0.057905
0.0573087
0.0567089
0.0561044
0.0555131
0.0549259
0.0543316
0.0537405
0.0531584
0.0525779
0.0519977
0.0514282
0.0508772
0.05034
0.0498063
0.0492776
0.0487663
0.0482647
0.0477661
0.0472712
0.0467755
0.0462878
0.0458028
0.045316
0.0448235
0.044327
0.0438262
0.0433203
0.0428065
0.0422849
0.0417572
0.041225
0.0642397
0.0637944
0.0632979
0.0627672
0.0622132
0.0616392
0.0610602
0.0604733
0.059878
0.0592869
0.0586913
0.0580899
0.0574994
0.0569112
0.0563149
0.0557207
0.0551321
0.0545459
0.0539598
0.0533837
0.0528252
0.0522796
0.051737
0.0511988
0.0506771
0.0501644
0.0496543
0.0491475
0.0486393
0.0481385
0.0476397
0.0471384
0.0466313
0.0461205
0.0456049
0.0450839
0.0445545
0.0440169
0.0434729
0.0429237
0.0661437
0.0657028
0.0652132
0.0646901
0.0641441
0.0635785
0.0630077
0.0624282
0.0618402
0.0612558
0.0606638
0.0600666
0.0594772
0.0588866
0.0582871
0.0576877
0.0570956
0.0565049
0.0559139
0.0553321
0.0547668
0.0542137
0.0536631
0.0531163
0.0525851
0.0520622
0.0515412
0.0510232
0.0505033
0.0499901
0.049478
0.048962
0.0484418
0.0479174
0.0473878
0.0468522
0.0463078
0.0457549
0.045195
0.0446294
0.0680337
0.0675975
0.0671161
0.0665996
0.066062
0.0655057
0.0649441
0.0643711
0.0637911
0.0632114
0.062625
0.0620301
0.0614416
0.0608513
0.060249
0.0596447
0.0590486
0.0584541
0.057859
0.0572723
0.0567012
0.0561415
0.0555837
0.0550291
0.0544893
0.0539569
0.053426
0.0528974
0.0523665
0.0518416
0.0513171
0.0507882
0.0502549
0.0497174
0.0491741
0.0486244
0.0480657
0.047498
0.0469229
0.0463417
0.0699086
0.069477
0.0690026
0.0684946
0.0679663
0.0674201
0.0668658
0.0663004
0.0657272
0.0651532
0.0645714
0.0639805
0.0633928
0.0628009
0.062194
0.0615882
0.0609898
0.0603924
0.0597941
0.0592035
0.0586274
0.058062
0.0574979
0.0569365
0.0563888
0.0558477
0.0553075
0.0547692
0.0542281
0.0536922
0.0531561
0.0526152
0.0520696
0.0515193
0.050963
0.0503999
0.0498274
0.0492455
0.0486559
0.0480598
0.0717677
0.0713406
0.0708733
0.0703744
0.0698563
0.0693183
0.0687727
0.0682165
0.0676495
0.0670822
0.0665041
0.0659143
0.0653263
0.0647316
0.0641246
0.0635181
0.0629183
0.062319
0.0617185
0.0611249
0.0605448
0.0599745
0.059405
0.0588374
0.0582827
0.0577338
0.0571851
0.0566377
0.056087
0.0555409
0.054994
0.0544419
0.0538846
0.0533224
0.0527537
0.0521778
0.0515921
0.0509967
0.0503933
0.0497831
0.0736104
0.0731877
0.0727272
0.0722382
0.0717283
0.0711999
0.0706644
0.0701156
0.0695568
0.0689945
0.0684189
0.0678322
0.067244
0.0666474
0.0660403
0.0654338
0.0648334
0.0642332
0.0636314
0.0630357
0.0624525
0.0618782
0.0613041
0.0607313
0.0601702
0.0596142
0.0590578
0.058502
0.0579422
0.0573867
0.0568299
0.0562673
0.0556992
0.0551258
0.0545453
0.0539573
0.0533591
0.0527509
0.0521343
0.051511
0.0754358
0.0750173
0.0745631
0.0740825
0.0735822
0.0730646
0.0725374
0.0719978
0.0714455
0.0708867
0.0703154
0.0697303
0.0691404
0.0685455
0.0679399
0.0673346
0.0667346
0.0661343
0.0655321
0.0649352
0.0643498
0.0637725
0.0631945
0.0626171
0.0620506
0.0614881
0.0609247
0.0603611
0.0597926
0.0592287
0.0586629
0.0580907
0.0575125
0.0569285
0.0563371
0.0557375
0.0551275
0.0545072
0.0538784
0.053243
0.0772433
0.0768288
0.0763805
0.0759077
0.0754177
0.0749089
0.0743917
0.0738599
0.0733127
0.0727589
0.0721906
0.0716054
0.0710184
0.0704261
0.0698231
0.0692198
0.0686211
0.0680217
0.0674199
0.0668228
0.0662362
0.0656565
0.0650754
0.0644942
0.0639228
0.0633548
0.062785
0.0622145
0.0616384
0.0610666
0.0604922
0.0599112
0.0593238
0.05873
0.0581281
0.0575177
0.0568964
0.0562648
0.0556247
0.0549783
0.0790323
0.0786217
0.0781789
0.0777129
0.0772312
0.0767327
0.0762243
0.0756993
0.0751593
0.0746082
0.0740417
0.0734612
0.0728779
0.0722892
0.0716896
0.0710891
0.0704926
0.0698948
0.0692943
0.0686979
0.0681113
0.0675298
0.0669461
0.0663617
0.0657862
0.0652132
0.0646379
0.0640612
0.0634784
0.0628992
0.0623171
0.061728
0.0611323
0.0605293
0.0599175
0.0592968
0.0586651
0.0580229
0.0573724
0.0567164
0.080802
0.0803954
0.0799578
0.0794981
0.0790234
0.0785329
0.0780326
0.0775167
0.0769838
0.0764361
0.0758735
0.0752977
0.074719
0.0741344
0.0735389
0.0729421
0.0723483
0.0717529
0.0711544
0.0705597
0.069975
0.0693914
0.0688056
0.0682187
0.0676398
0.0670625
0.0664823
0.0659002
0.0653114
0.0647255
0.0641363
0.06354
0.0629379
0.0623255
0.0617042
0.0610739
0.0604325
0.0597806
0.0591208
0.0584567
0.0825518
0.0821492
0.0817168
0.0812631
0.0807949
0.0803114
0.0798182
0.0793098
0.0787839
0.0782421
0.0776851
0.0771148
0.0765412
0.0759614
0.0753707
0.0747781
0.0741878
0.0735953
0.0729994
0.0724068
0.0718233
0.0712394
0.0706526
0.0700642
0.0694826
0.0689019
0.0683175
0.0677305
0.0671363
0.0665445
0.0659489
0.0653459
0.0647368
0.0641165
0.0634869
0.0628479
0.0621976
0.0615369
0.060869
0.0601985
0.0842807
0.0838824
0.0834553
0.0830076
0.0825457
0.0820688
0.0815824
0.0810808
0.0805619
0.0800267
0.0794761
0.0789121
0.0783443
0.0777699
0.0771845
0.0765966
0.0760104
0.0754215
0.0748289
0.0742387
0.0736567
0.0730735
0.0724866
0.0718975
0.071314
0.0707303
0.0701423
0.069551
0.0689521
0.0683551
0.0677537
0.0671446
0.066529
0.0659017
0.0652646
0.0646178
0.0639595
0.0632911
0.0626163
0.0619412
0.0859882
0.0855942
0.0851726
0.084731
0.0842754
0.0838052
0.0833254
0.0828306
0.0823186
0.0817903
0.0812466
0.0806894
0.0801278
0.0795593
0.0789797
0.0783971
0.0778155
0.0772309
0.0766421
0.0760551
0.0754751
0.074893
0.0743068
0.0737181
0.0731332
0.072547
0.0719559
0.0713605
0.0707576
0.0701562
0.0695498
0.0689354
0.0683139
0.0676804
0.0670367
0.0663827
0.0657174
0.0650423
0.064362
0.0636842
0.0876733
0.087284
0.086868
0.0864326
0.0859835
0.08552
0.0850468
0.0845589
0.0840541
0.0835329
0.0829963
0.0824462
0.0818913
0.0813291
0.0807557
0.0801789
0.0796024
0.0790226
0.0784384
0.0778556
0.0772778
0.0766972
0.0761124
0.0755258
0.074939
0.0743507
0.0737572
0.0731574
0.0725519
0.0719469
0.0713364
0.0707174
0.0700908
0.0694518
0.0688021
0.0681419
0.0674704
0.0667896
0.0661051
0.0654269
0.0893353
0.0889509
0.0885407
0.0881116
0.0876692
0.0872126
0.0867463
0.0862653
0.0857677
0.0852538
0.0847247
0.0841821
0.0836341
0.0830786
0.0825119
0.0819413
0.0813704
0.0807958
0.080217
0.0796402
0.079064
0.078485
0.0779017
0.0773164
0.0767294
0.0761401
0.075546
0.0749427
0.0743344
0.0737264
0.0731125
0.0724898
0.0718589
0.0712151
0.0705601
0.0698945
0.0692175
0.068532
0.0678447
0.0671685
0.0909734
0.0905941
0.0901899
0.0897675
0.0893318
0.0888822
0.0884229
0.0879492
0.0874591
0.0869527
0.0864312
0.0858963
0.0853556
0.0848071
0.0842474
0.0836835
0.0831187
0.0825499
0.0819765
0.0814046
0.0808317
0.0802552
0.079674
0.0790901
0.0785036
0.0779137
0.0773172
0.0767135
0.0761039
0.0754938
0.0748774
0.0742521
0.0736174
0.0729694
0.0723098
0.0716393
0.0709577
0.0702686
0.06958
0.0689081
0.092587
0.0922129
0.091815
0.0913993
0.0909706
0.0905283
0.0900762
0.0896099
0.0891274
0.0886288
0.0881152
0.0875882
0.0870551
0.086514
0.0859617
0.0854048
0.0848465
0.084284
0.0837165
0.0831495
0.0825805
0.0820072
0.0814287
0.0808466
0.080261
0.0796712
0.0790741
0.07847
0.0778595
0.077248
0.0766301
0.076004
0.0753654
0.0747134
0.0740498
0.0733753
0.0726901
0.0719983
0.0713099
0.0706447
0.0941752
0.0938067
0.0934151
0.0930064
0.0925849
0.0921499
0.0917053
0.0912467
0.0907721
0.0902815
0.089776
0.0892572
0.088732
0.0881985
0.0876539
0.0871044
0.0865532
0.0859976
0.0854368
0.0848747
0.0843097
0.0837401
0.0831652
0.0825852
0.0820009
0.0814117
0.080815
0.0802109
0.0796003
0.0789881
0.078369
0.0777415
0.0771006
0.0764458
0.0757792
0.0751015
0.0744135
0.0737202
0.0730334
0.0723774
0.0957374
0.0953747
0.0949897
0.0945881
0.0941739
0.0937466
0.0933096
0.0928588
0.0923923
0.09191
0.0914129
0.0909025
0.0903854
0.0898599
0.0893233
0.0887816
0.088238
0.0876899
0.0871375
0.0865794
0.0860184
0.0854529
0.0848833
0.0843049
0.083722
0.083134
0.0825384
0.0819353
0.0813254
0.0807132
0.0800934
0.0794647
0.0788223
0.0781656
0.0774968
0.0768169
0.076127
0.0754331
0.0747494
0.074105
0.0972731
0.0969163
0.0965381
0.0961437
0.0957371
0.0953175
0.0948884
0.0944456
0.0939875
0.0935137
0.0930251
0.0925234
0.0920146
0.0914974
0.0909691
0.0904357
0.0899
0.0893601
0.0888143
0.0882616
0.0877052
0.087144
0.0865786
0.0860033
0.0854229
0.0848368
0.0842432
0.0836422
0.0830343
0.0824225
0.0818023
0.081173
0.0805297
0.079872
0.0792019
0.0785205
0.0778295
0.0771361
0.0764568
0.0758261
0.0987817
0.0984311
0.0980597
0.0976727
0.0972737
0.0968621
0.096441
0.0960066
0.0955571
0.095092
0.0946122
0.0941193
0.0936191
0.0931103
0.0925907
0.0920658
0.0915386
0.0910082
0.0904679
0.0899207
0.0893693
0.0888128
0.0882514
0.0876801
0.0871029
0.0865189
0.0859286
0.0853308
0.0847268
0.0841151
0.0834945
0.0828654
0.0822222
0.0815642
0.0808934
0.0802114
0.0795202
0.0788281
0.0781544
0.0775396
0.100263
0.0999183
0.099554
0.0991746
0.0987834
0.0983798
0.0979668
0.097541
0.0971004
0.0966444
0.0961735
0.0956895
0.095198
0.094698
0.0941873
0.0936712
0.0931526
0.0926302
0.0920968
0.0915558
0.0910101
0.0904585
0.0899012
0.0893345
0.0887615
0.0881812
0.0875941
0.0870001
0.086399
0.085789
0.0851696
0.0845414
0.0838988
0.0832413
0.0825707
0.0818886
0.081198
0.0805081
0.079841
0.0792439
0.101715
0.101378
0.101021
0.100649
0.100265
0.0998701
0.0994654
0.0990482
0.098617
0.0981707
0.0977086
0.0972333
0.0967507
0.0962597
0.0957583
0.0952515
0.0947421
0.0942271
0.0937009
0.0931666
0.092627
0.0920807
0.0915269
0.0909662
0.0903983
0.0898226
0.0892403
0.0886503
0.088052
0.0874442
0.0868267
0.0862001
0.0855589
0.0849024
0.0842327
0.0835514
0.082862
0.0821751
0.0815155
0.0809377
0.10314
0.102809
0.102459
0.102095
0.10172
0.101332
0.100936
0.100528
0.100106
0.0996709
0.0992165
0.0987501
0.0982766
0.0977949
0.0973031
0.0968062
0.0963072
0.0957988
0.0952795
0.0947523
0.0942197
0.0936794
0.0931308
0.0925754
0.0920124
0.0914422
0.0908668
0.0902809
0.0896849
0.0890796
0.0884648
0.0878406
0.0872015
0.0865469
0.0858787
0.0851989
0.0845113
0.0838279
0.0831766
0.0826192
0.104536
0.104211
0.103869
0.103513
0.103145
0.102767
0.102379
0.101979
0.101566
0.101141
0.100696
0.100239
0.0997751
0.099303
0.0988213
0.0983345
0.0978442
0.0973434
0.0968318
0.0963125
0.0957878
0.095254
0.0947112
0.0941611
0.0936026
0.0930385
0.0924691
0.0918881
0.0912955
0.0906939
0.0900831
0.0894623
0.088826
0.0881738
0.0875078
0.08683
0.0861449
0.0854656
0.0848232
0.0842871
0.105902
0.105585
0.10525
0.104901
0.104542
0.104172
0.103793
0.103402
0.102998
0.102582
0.102147
0.1017
0.101246
0.100784
0.100312
0.0998368
0.0993537
0.0988606
0.0983572
0.0978464
0.0973315
0.0968036
0.0962667
0.0957226
0.0951698
0.0946117
0.094048
0.0934725
0.0928848
0.0922879
0.0916818
0.0910647
0.0904316
0.0897824
0.089119
0.0884438
0.0877617
0.0870871
0.086454
0.0859399
0.107239
0.106929
0.106601
0.106261
0.10591
0.105548
0.105178
0.104796
0.104401
0.103994
0.103569
0.103132
0.102688
0.102236
0.101776
0.101309
0.100835
0.10035
0.099855
0.0993532
0.0988467
0.0983263
0.0977964
0.0972586
0.0967125
0.0961609
0.0956035
0.0950339
0.0944518
0.0938604
0.093261
0.0926471
0.0920173
0.0913715
0.0907114
0.0900394
0.0893609
0.0886913
0.0880678
0.087576
0.108547
0.108244
0.107924
0.107592
0.107249
0.106896
0.106534
0.106161
0.105775
0.105378
0.104962
0.104535
0.104102
0.103661
0.103212
0.102753
0.102287
0.101811
0.101325
0.100833
0.100335
0.0998222
0.0992996
0.0987681
0.0982301
0.0976859
0.0971351
0.0965719
0.0959958
0.0954102
0.0948163
0.0942072
0.0935819
0.0929402
0.092284
0.0916159
0.0909414
0.0902773
0.0896636
0.0891941
0.109825
0.109529
0.109217
0.108893
0.108559
0.108214
0.107861
0.107496
0.10712
0.106733
0.106327
0.10591
0.105487
0.105058
0.104617
0.104167
0.103709
0.103243
0.102767
0.102286
0.101795
0.101291
0.100776
0.100253
0.0997229
0.0991864
0.0986426
0.0980858
0.0975161
0.0969367
0.0963485
0.0957447
0.0951244
0.0944876
0.093836
0.0931723
0.0925025
0.0918441
0.0912403
0.090793
0.111074
0.110785
0.11048
0.110165
0.109839
0.109503
0.109158
0.108803
0.108436
0.108058
0.107662
0.107255
0.106842
0.106423
0.105991
0.105551
0.105103
0.104646
0.104181
0.103709
0.103227
0.102732
0.102226
0.101711
0.101191
0.100662
0.100125
0.099575
0.0990119
0.0984394
0.0978573
0.0972591
0.0966443
0.0960129
0.0953665
0.0947078
0.0940432
0.093391
0.092797
0.0923715
0.112292
0.112011
0.111714
0.111407
0.111089
0.110762
0.110426
0.11008
0.109723
0.109354
0.108969
0.108572
0.108167
0.107757
0.107336
0.106905
0.106467
0.10602
0.105567
0.105103
0.10463
0.104146
0.103649
0.103144
0.102633
0.102114
0.101582
0.101038
0.100482
0.0999184
0.0993418
0.0987495
0.0981407
0.0975154
0.0968749
0.0962219
0.095563
0.0949172
0.094333
0.0939286
0.113481
0.113207
0.112919
0.112619
0.11231
0.111991
0.111664
0.111327
0.11098
0.110622
0.110247
0.10986
0.109464
0.109061
0.108651
0.10823
0.107802
0.107365
0.106922
0.106468
0.106004
0.105529
0.105042
0.104549
0.104046
0.103535
0.103011
0.102474
0.101926
0.10137
0.1008
0.100215
0.0996131
0.0989945
0.0983606
0.0977139
0.0970612
0.0964221
0.0958475
0.0954635
0.114641
0.114374
0.114093
0.113802
0.113502
0.113192
0.112873
0.112545
0.112207
0.111859
0.111497
0.111118
0.110732
0.110338
0.109937
0.109527
0.109108
0.108681
0.108247
0.107802
0.107348
0.106884
0.106407
0.105924
0.10543
0.104926
0.104411
0.103882
0.103342
0.102794
0.102233
0.101655
0.101061
0.10045
0.0998233
0.0991834
0.0985373
0.0979052
0.0973399
0.0969753
0.115771
0.115511
0.115239
0.114956
0.114664
0.114362
0.114053
0.113734
0.113405
0.113067
0.112715
0.112347
0.11197
0.111586
0.111195
0.110794
0.110385
0.109967
0.109542
0.109108
0.108664
0.108209
0.107744
0.10727
0.106785
0.10629
0.105782
0.105263
0.104732
0.104193
0.10364
0.10307
0.102485
0.101881
0.101262
0.10063
0.099991
0.099366
0.0988098
0.0984636
0.116872
0.11662
0.116355
0.11608
0.115796
0.115504
0.115203
0.114893
0.114574
0.114245
0.113904
0.113546
0.113179
0.112805
0.112424
0.112033
0.111634
0.111225
0.110808
0.110384
0.109951
0.109506
0.109051
0.108587
0.108112
0.107626
0.107127
0.106617
0.106095
0.105565
0.105021
0.104461
0.103883
0.103289
0.102678
0.102054
0.101422
0.100804
0.100257
0.0999278
0.117944
0.117699
0.117442
0.117175
0.1169
0.116616
0.116324
0.116024
0.115714
0.115395
0.115063
0.114715
0.114359
0.113995
0.113624
0.113243
0.112854
0.112455
0.112047
0.111633
0.111209
0.110775
0.11033
0.109875
0.10941
0.108934
0.108445
0.107944
0.107432
0.106911
0.106377
0.105826
0.105258
0.104672
0.10407
0.103454
0.10283
0.10222
0.101681
0.101367
0.118987
0.118749
0.1185
0.118242
0.117975
0.117699
0.117416
0.117125
0.116824
0.116515
0.116193
0.115857
0.115511
0.115156
0.114794
0.114424
0.114045
0.113656
0.113258
0.112853
0.11244
0.112016
0.111581
0.111135
0.11068
0.110214
0.109736
0.109245
0.108743
0.108232
0.107707
0.107166
0.106607
0.106031
0.105438
0.10483
0.104215
0.103612
0.103081
0.102782
0.120001
0.119771
0.11953
0.11928
0.119021
0.118754
0.11848
0.118197
0.117906
0.117606
0.117295
0.11697
0.116634
0.116289
0.115936
0.115576
0.115208
0.114829
0.114441
0.114045
0.113643
0.113229
0.112805
0.112369
0.111923
0.111468
0.110999
0.110519
0.110028
0.109528
0.109013
0.108481
0.107932
0.107365
0.106782
0.106183
0.105576
0.104981
0.104457
0.104172
0.120988
0.120765
0.120531
0.120289
0.120039
0.119781
0.119515
0.119241
0.118959
0.118669
0.118369
0.118056
0.117729
0.117394
0.11705
0.116701
0.116343
0.115975
0.115597
0.115211
0.114818
0.114415
0.114001
0.113575
0.11314
0.112694
0.112236
0.111767
0.111289
0.110799
0.110293
0.109771
0.109232
0.108675
0.108101
0.107512
0.106914
0.106326
0.10581
0.105536
0.121946
0.121731
0.121505
0.121271
0.121029
0.120779
0.120522
0.120257
0.119985
0.119704
0.119413
0.119112
0.118795
0.118471
0.118137
0.117798
0.117449
0.117092
0.116725
0.116349
0.115966
0.115573
0.11517
0.114755
0.11433
0.113894
0.113447
0.11299
0.112523
0.112043
0.111547
0.111036
0.110507
0.10996
0.109396
0.108817
0.108227
0.107648
0.107138
0.106875
0.122878
0.122669
0.122451
0.122225
0.121991
0.12175
0.121502
0.121246
0.120982
0.120711
0.12043
0.120139
0.119834
0.119519
0.119196
0.118866
0.118528
0.118182
0.117825
0.117459
0.117086
0.116704
0.116311
0.115907
0.115493
0.115068
0.114632
0.114186
0.113731
0.113261
0.112776
0.112275
0.111756
0.11122
0.110667
0.110097
0.109517
0.108945
0.108442
0.108188
0.123782
0.123581
0.12337
0.123152
0.122927
0.122694
0.122454
0.122207
0.121952
0.12169
0.121419
0.121138
0.120845
0.120541
0.120227
0.119907
0.11958
0.119244
0.118898
0.118543
0.11818
0.117808
0.117426
0.117033
0.11663
0.116216
0.115791
0.115358
0.114913
0.114453
0.113979
0.113489
0.112981
0.112455
0.111912
0.111353
0.110782
0.110219
0.109722
0.109475
0.124659
0.124465
0.124263
0.124052
0.123835
0.123611
0.123379
0.123141
0.122895
0.122643
0.122381
0.122111
0.12183
0.121536
0.121232
0.120921
0.120605
0.120279
0.119944
0.1196
0.119247
0.118885
0.118514
0.118132
0.11774
0.117337
0.116924
0.116503
0.116068
0.11562
0.115156
0.114677
0.11418
0.113666
0.113133
0.112584
0.112023
0.111468
0.110977
0.110735
0.125511
0.125324
0.125129
0.124926
0.124717
0.124501
0.124278
0.124049
0.123812
0.123568