/*--------------------------------*- C++ -*----------------------------------*\
| =========                 |                                                 |
| \\      /  F ield         | OpenFOAM: The Open Source CFD Toolbox           |
|  \\    /   O peration     | Version:  3.0.1                                 |
|   \\  /    A nd           | Web:      www.OpenFOAM.org                      |
|    \\/     M anipulation  |                                                 |
\*---------------------------------------------------------------------------*/
FoamFile
{
    version     2.0;
    format      ascii;
    class       volScalarField;
    location    "500";
    object      p;
}
// * * * * * * * * * * * * * * * * * * * * * * * * * * * * * * * * * * * * * //

dimensions      [0 2 -2 0 0 0 0];

internalField   nonuniform List<scalar> 
58000
(
-0.118572
-0.404082
-0.619879
-0.74324
-0.81425
-0.864495
-0.897376
-0.917287
-0.927667
-0.928535
-0.923549
-0.91451
-0.901192
-0.885965
-0.871106
-0.857139
-0.843677
-0.831357
-0.820157
-0.809555
-0.799011
-0.789191
-0.780082
-0.771238
-0.762166
-0.753023
-0.744433
-0.736159
-0.727851
-0.719296
-0.710715
-0.702578
-0.694701
-0.686812
-0.678728
-0.669494
-0.657116
-0.644251
-0.634079
-0.626138
0.198359
0.0675466
-0.0780145
-0.221315
-0.344414
-0.450105
-0.539047
-0.618211
-0.681739
-0.729474
-0.765281
-0.788958
-0.802116
-0.80844
-0.808826
-0.804646
-0.798185
-0.790513
-0.782052
-0.773219
-0.764401
-0.755755
-0.747087
-0.738441
-0.729796
-0.72152
-0.713288
-0.705031
-0.696728
-0.688402
-0.680409
-0.67246
-0.664465
-0.656338
-0.648098
-0.639734
-0.630529
-0.62125
-0.613856
-0.609328
0.134507
0.037826
-0.0621894
-0.165564
-0.262339
-0.351957
-0.432364
-0.502791
-0.56516
-0.615644
-0.656463
-0.68856
-0.711111
-0.726174
-0.735719
-0.740227
-0.740946
-0.739222
-0.735852
-0.731307
-0.725983
-0.720125
-0.713856
-0.707336
-0.700682
-0.69395
-0.68701
-0.67994
-0.672776
-0.665629
-0.658489
-0.651216
-0.643851
-0.636377
-0.628852
-0.62127
-0.613416
-0.605489
-0.598101
-0.59116
0.15206
0.0885183
0.0182445
-0.0606361
-0.142077
-0.223291
-0.29985
-0.370613
-0.435613
-0.491361
-0.5396
-0.580549
-0.612429
-0.636759
-0.655584
-0.668663
-0.676652
-0.681156
-0.683142
-0.683004
-0.681184
-0.678193
-0.674362
-0.669867
-0.66487
-0.659512
-0.6538
-0.647804
-0.641545
-0.635152
-0.628696
-0.62206
-0.615264
-0.608297
-0.601237
-0.594189
-0.587092
-0.579962
-0.573001
-0.566243
0.132072
0.085476
0.0355707
-0.0218295
-0.0839864
-0.149664
-0.215704
-0.279378
-0.340891
-0.396042
-0.445686
-0.489969
-0.526534
-0.556099
-0.580705
-0.599753
-0.613329
-0.623024
-0.629811
-0.633925
-0.635697
-0.635778
-0.634667
-0.632564
-0.629626
-0.625972
-0.621778
-0.617148
-0.612117
-0.606831
-0.601304
-0.595515
-0.589504
-0.583277
-0.576933
-0.570545
-0.564092
-0.557548
-0.55095
-0.544273
0.121259
0.0847746
0.0463299
0.00216402
-0.0463561
-0.0990431
-0.154319
-0.20949
-0.264995
-0.316776
-0.36509
-0.409886
-0.448579
-0.481298
-0.509816
-0.533234
-0.551212
-0.565222
-0.576156
-0.584078
-0.589191
-0.592223
-0.593769
-0.594021
-0.593103
-0.59116
-0.588502
-0.585252
-0.58145
-0.577229
-0.572623
-0.567681
-0.562448
-0.556935
-0.551235
-0.54543
-0.539524
-0.533478
-0.527281
-0.520941
0.109152
0.0795968
0.0490116
0.0140252
-0.0245372
-0.0669418
-0.112705
-0.159412
-0.207983
-0.2548
-0.29976
-0.342825
-0.381438
-0.415216
-0.445687
-0.471785
-0.492802
-0.510028
-0.524243
-0.535355
-0.543409
-0.549126
-0.553154
-0.555666
-0.556749
-0.556533
-0.55544
-0.553609
-0.551086
-0.547995
-0.544373
-0.540333
-0.535928
-0.531176
-0.526168
-0.520978
-0.515631
-0.510088
-0.504317
-0.49834
0.0987966
0.0739789
0.0486908
0.0200053
-0.0114784
-0.046182
-0.0842484
-0.123606
-0.165528
-0.206975
-0.247694
-0.287748
-0.3248
-0.358117
-0.389001
-0.416347
-0.439169
-0.458551
-0.475144
-0.488725
-0.49918
-0.50718
-0.513386
-0.517932
-0.520861
-0.522275
-0.52268
-0.522219
-0.520941
-0.51896
-0.516314
-0.51317
-0.509588
-0.50559
-0.501263
-0.496678
-0.491879
-0.486835
-0.481506
-0.475942
0.0895856
0.0682703
0.0468111
0.0226561
-0.00368767
-0.0326544
-0.0646979
-0.0980301
-0.134112
-0.170461
-0.20679
-0.243285
-0.277924
-0.309779
-0.339971
-0.367449
-0.391045
-0.411633
-0.429746
-0.445069
-0.457352
-0.467178
-0.475189
-0.48147
-0.48603
-0.48892
-0.490704
-0.491522
-0.49142
-0.490503
-0.488802
-0.486531
-0.483754
-0.480495
-0.47684
-0.472854
-0.468598
-0.46405
-0.45917
-0.454032
0.0814987
0.0628459
0.0442479
0.0234623
0.000944601
-0.0237024
-0.0510619
-0.0795706
-0.11075
-0.142578
-0.17478
-0.207656
-0.239519
-0.269363
-0.298162
-0.324976
-0.348549
-0.369574
-0.388475
-0.404883
-0.41844
-0.429624
-0.439041
-0.446724
-0.452655
-0.456823
-0.459824
-0.46179
-0.462757
-0.462823
-0.462006
-0.460559
-0.458546
-0.455993
-0.452982
-0.449572
-0.445843
-0.441779
-0.437342
-0.432632
0.0743749
0.057816
0.0414302
0.0232315
0.00363927
-0.0176945
-0.0413881
-0.0660548
-0.0931933
-0.121146
-0.149671
-0.179141
-0.208179
-0.23578
-0.262806
-0.28845
-0.311443
-0.332329
-0.351437
-0.368376
-0.382712
-0.394823
-0.405262
-0.414015
-0.421042
-0.426269
-0.430302
-0.433261
-0.435169
-0.436117
-0.436107
-0.435417
-0.434111
-0.432215
-0.429808
-0.426945
-0.423717
-0.420118
-0.416109
-0.411818
0.0680845
0.0532138
0.0385849
0.0224272
0.00513029
-0.013607
-0.0343938
-0.0559876
-0.0798156
-0.104499
-0.129833
-0.15623
-0.182577
-0.207918
-0.233021
-0.257213
-0.279267
-0.299606
-0.318489
-0.335523
-0.350228
-0.362888
-0.374005
-0.38352
-0.391376
-0.397441
-0.402316
-0.406103
-0.408813
-0.410529
-0.411234
-0.411222
-0.410556
-0.409259
-0.407408
-0.405053
-0.402294
-0.399131
-0.395529
-0.391639
0.0625107
0.0490308
0.0358306
0.0213216
0.0058665
-0.0107946
-0.0292408
-0.0483527
-0.069462
-0.0914032
-0.114002
-0.137691
-0.161571
-0.184755
-0.207929
-0.230547
-0.251454
-0.270984
-0.28934
-0.306145
-0.320895
-0.333795
-0.345294
-0.355298
-0.363741
-0.370437
-0.375969
-0.380421
-0.383793
-0.386158
-0.387479
-0.388061
-0.38796
-0.387198
-0.385849
-0.383957
-0.38163
-0.378871
-0.375648
-0.372135
0.057554
0.0452411
0.0332259
0.020076
0.00612873
-0.00884109
-0.0253728
-0.0424535
-0.0613128
-0.0809517
-0.10122
-0.122548
-0.144212
-0.165397
-0.186724
-0.207757
-0.227424
-0.245994
-0.263627
-0.279972
-0.294524
-0.30742
-0.31906
-0.329323
-0.338139
-0.345281
-0.351301
-0.356265
-0.360163
-0.36306
-0.364898
-0.365986
-0.366374
-0.366082
-0.365178
-0.363702
-0.361764
-0.359374
-0.356499
-0.353336
0.0531307
0.0418126
0.0307971
0.0187873
0.00609628
-0.00747152
-0.0224135
-0.0378099
-0.0547888
-0.0724842
-0.0907649
-0.110048
-0.129743
-0.149112
-0.168719
-0.188217
-0.206626
-0.224165
-0.240961
-0.256694
-0.270872
-0.283581
-0.295174
-0.30551
-0.314518
-0.321941
-0.3283
-0.33364
-0.337939
-0.341256
-0.343517
-0.345025
-0.345827
-0.345938
-0.345423
-0.344313
-0.342722
-0.340662
-0.338104
-0.33526
0.0491699
0.0387114
0.0285518
0.0175129
0.00588486
-0.00650303
-0.0201063
-0.0340881
-0.0494799
-0.0655231
-0.0821029
-0.0996151
-0.117571
-0.13531
-0.153341
-0.171388
-0.188566
-0.205055
-0.22096
-0.235989
-0.249676
-0.262065
-0.273466
-0.283729
-0.292784
-0.300353
-0.306919
-0.312513
-0.317102
-0.320739
-0.323335
-0.325184
-0.326328
-0.326777
-0.326594
-0.325802
-0.324515
-0.322747
-0.320472
-0.317917
0.0456116
0.0359037
0.0264865
0.0162858
0.00556962
-0.00581133
-0.0182728
-0.0310524
-0.045091
-0.0597186
-0.0748337
-0.0908068
-0.107231
-0.123513
-0.140113
-0.156814
-0.172816
-0.188272
-0.20327
-0.217548
-0.230669
-0.242647
-0.253754
-0.263833
-0.272822
-0.280425
-0.287088
-0.292832
-0.297613
-0.301478
-0.304329
-0.306446
-0.307865
-0.308593
-0.308687
-0.308166
-0.307143
-0.305631
-0.303605
-0.301309
0.0424047
0.033359
0.0245929
0.0151243
0.00519987
-0.00531127
-0.0167874
-0.0285336
-0.0414069
-0.0548115
-0.068657
-0.0832872
-0.0983611
-0.113344
-0.128651
-0.144113
-0.15901
-0.173473
-0.187577
-0.20109
-0.213604
-0.225111
-0.235851
-0.245666
-0.254499
-0.262046
-0.268717
-0.274522
-0.279413
-0.283429
-0.286463
-0.288782
-0.290415
-0.291366
-0.291688
-0.291396
-0.290596
-0.289304
-0.287498
-0.285431
0.0395064
0.0310501
0.0228604
0.0140374
0.00480784
-0.00494352
-0.0155605
-0.026409
-0.0382694
-0.050609
-0.0633466
-0.0767993
-0.090678
-0.104501
-0.118644
-0.132974
-0.146842
-0.160364
-0.173604
-0.186359
-0.198248
-0.209249
-0.219575
-0.229069
-0.237679
-0.2451
-0.251708
-0.257504
-0.262434
-0.266534
-0.269689
-0.272152
-0.273945
-0.27507
-0.275575
-0.27547
-0.274858
-0.273755
-0.272139
-0.270272
0.0368804
0.0289525
0.0212773
0.0130287
0.00441489
-0.00466618
-0.0145269
-0.0245883
-0.0355606
-0.0469655
-0.0587296
-0.0711441
-0.0839614
-0.0967473
-0.109842
-0.123139
-0.136058
-0.148697
-0.161115
-0.17313
-0.184394
-0.194872
-0.204756
-0.213891
-0.222229
-0.229471
-0.235961
-0.241691
-0.246604
-0.25073
-0.253954
-0.256511
-0.258417
-0.259671
-0.260319
-0.260365
-0.259908
-0.258962
-0.25751
-0.255816
0.0344949
0.0270445
0.0198322
0.0120986
0.00403482
-0.00444971
-0.0136391
-0.0230046
-0.0331919
-0.0437704
-0.0546735
-0.0661675
-0.0780386
-0.089895
-0.102044
-0.1144
-0.126444
-0.138262
-0.149902
-0.161207
-0.171857
-0.181811
-0.191238
-0.19999
-0.208022
-0.215048
-0.221376
-0.226995
-0.231845
-0.235952
-0.2392
-0.241807
-0.243785
-0.245131
-0.245886
-0.246051
-0.245719
-0.244905
-0.243591
-0.242047
0.0323231
0.0253067
0.0185139
0.0112453
0.00367618
-0.00427378
-0.0128626
-0.0216078
-0.0310965
-0.0409392
-0.0510758
-0.061749
-0.0727729
-0.0837935
-0.095088
-0.106589
-0.117827
-0.128881
-0.139793
-0.150421
-0.160475
-0.169911
-0.178879
-0.187235
-0.194941
-0.201722
-0.207858
-0.213331
-0.218082
-0.222133
-0.225369
-0.22799
-0.230005
-0.23141
-0.23224
-0.232496
-0.232263
-0.231556
-0.230358
-0.228942
0.0303414
0.0237215
0.0173111
0.0104651
0.00334378
-0.00412373
-0.0121718
-0.0203602
-0.0292228
-0.0384063
-0.0478562
-0.0577935
-0.0680552
-0.0783213
-0.0888423
-0.0995631
-0.110061
-0.120407
-0.130636
-0.140625
-0.150108
-0.159039
-0.167551
-0.175508
-0.182878
-0.189395
-0.195316
-0.200617
-0.205241
-0.209208
-0.2124
-0.215006
-0.217029
-0.218464
-0.219345
-0.219666
-0.219509
-0.218888
-0.217787
-0.216479
0.0285295
0.0222738
0.0162137
0.00975384
0.00304064
-0.00398892
-0.0115471
-0.0192324
-0.0275301
-0.0361197
-0.044951
-0.054225
-0.0637981
-0.0733805
-0.083199
-0.093208
-0.103026
-0.112716
-0.122309
-0.131696
-0.140634
-0.149077
-0.157143
-0.164705
-0.171734
-0.177977
-0.183666
-0.188778
-0.193254
-0.197112
-0.200238
-0.202804
-0.204811
-0.206254
-0.20716
-0.207526
-0.207426
-0.206871
-0.20585
-0.204634
0.0268699
0.0209501
0.0152125
0.00910728
0.002768
-0.00386158
-0.0109738
-0.0182018
-0.0259869
-0.0340383
-0.0423096
-0.0509833
-0.0599319
-0.0688929
-0.0780714
-0.0874292
-0.0966217
-0.105704
-0.114704
-0.123526
-0.131948
-0.139923
-0.147557
-0.154731
-0.161419
-0.167382
-0.172832
-0.177741
-0.182054
-0.185786
-0.188827
-0.191333
-0.193305
-0.194735
-0.19565
-0.196042
-0.19598
-0.195478
-0.194521
-0.193381
0.0253472
0.0197384
0.0142991
0.00852102
0.00252571
-0.00373677
-0.0104408
-0.0172513
-0.0245693
-0.0321305
-0.0398925
-0.0480204
-0.0564003
-0.0647944
-0.0733879
-0.0821487
-0.0907646
-0.0992847
-0.107734
-0.116025
-0.123959
-0.131487
-0.138706
-0.145502
-0.151853
-0.157537
-0.162741
-0.16744
-0.17158
-0.175174
-0.178114
-0.180546
-0.182467
-0.183869
-0.184775
-0.185178
-0.185142
-0.184677
-0.183773
-0.182695
0.0239479
0.018628
0.0134656
0.00799047
0.00231288
-0.0036113
-0.00993996
-0.0163673
-0.0232577
-0.0303708
-0.0376674
-0.045297
-0.0531573
-0.0610322
-0.0690893
-0.0773012
-0.0853851
-0.0933845
-0.101321
-0.109116
-0.116588
-0.123692
-0.130512
-0.136944
-0.142967
-0.148372
-0.15333
-0.157815
-0.161775
-0.165221
-0.168052
-0.170397
-0.172255
-0.173616
-0.174501
-0.174903
-0.17488
-0.174442
-0.173578
-0.172552
0.02266
0.0176095
0.0127051
0.00751125
0.00212832
-0.00348295
-0.00946513
-0.0155394
-0.0220368
-0.0287384
-0.0356079
-0.0427807
-0.0501645
-0.0575627
-0.0651264
-0.0728325
-0.0804245
-0.0879409
-0.0953997
-0.102731
-0.109769
-0.11647
-0.12291
-0.128991
-0.134695
-0.139827
-0.144541
-0.148811
-0.152588
-0.155881
-0.158593
-0.160844
-0.162629
-0.163939
-0.164793
-0.165183
-0.165163
-0.164742
-0.16391
-0.162926
0.0214727
0.0166742
0.0120109
0.00707922
0.00197043
-0.00335013
-0.00901132
-0.014759
-0.020894
-0.0272161
-0.0336922
-0.0404446
-0.0473898
-0.0543492
-0.0614585
-0.0686974
-0.0758335
-0.0829009
-0.089915
-0.0968121
-0.103441
-0.109762
-0.115839
-0.121585
-0.12698
-0.131846
-0.136321
-0.140378
-0.14397
-0.147107
-0.149695
-0.151845
-0.15355
-0.154802
-0.155617
-0.155988
-0.155962
-0.155551
-0.154743
-0.153793
0.0203769
0.0158145
0.0113769
0.00669038
0.00183743
-0.00321221
-0.00857502
-0.0140196
-0.0198188
-0.0257898
-0.0319026
-0.0382671
-0.0448073
-0.051361
-0.0580506
-0.0648575
-0.0715702
-0.0782196
-0.084819
-0.0913101
-0.0975552
-0.103516
-0.10925
-0.114674
-0.119774
-0.124381
-0.128622
-0.132469
-0.135878
-0.138858
-0.14132
-0.143364
-0.144985
-0.146173
-0.146943
-0.147287
-0.14725
-0.146841
-0.146052
-0.145128
0.0193639
0.0150232
0.0107978
0.00634095
0.00172763
-0.00306875
-0.00815356
-0.013316
-0.0188032
-0.0244485
-0.0302243
-0.0362296
-0.0423951
-0.0485728
-0.0548732
-0.0612793
-0.0675988
-0.0738592
-0.0800715
-0.0861826
-0.0920666
-0.0976867
-0.103095
-0.108215
-0.113031
-0.117389
-0.121401
-0.125043
-0.128272
-0.131095
-0.13343
-0.135367
-0.1369
-0.138019
-0.13874
-0.139053
-0.139
-0.138588
-0.137811
-0.136908
0.0184264
0.0142944
0.0102686
0.00602759
0.00163932
-0.00291979
-0.00774486
-0.0126438
-0.0178403
-0.0231826
-0.0286451
-0.0343168
-0.0401345
-0.0459631
-0.0519019
-0.0579354
-0.0638889
-0.0697867
-0.0756374
-0.0813925
-0.0869371
-0.0922364
-0.0973366
-0.102166
-0.106711
-0.110829
-0.114621
-0.118064
-0.121116
-0.123784
-0.125992
-0.12782
-0.129264
-0.130312
-0.13098
-0.131258
-0.131185
-0.130767
-0.129999
-0.129112
0.0175576
0.0136225
0.00978505
0.00574729
0.00157073
-0.0027656
-0.00734745
-0.0119996
-0.0169247
-0.0219843
-0.0271546
-0.0325158
-0.0380097
-0.0435133
-0.0491157
-0.0548024
-0.0604146
-0.0659737
-0.0714862
-0.0769078
-0.0821334
-0.0871299
-0.0919384
-0.0964921
-0.100779
-0.104667
-0.108247
-0.111496
-0.114376
-0.116893
-0.118974
-0.120695
-0.122048
-0.123025
-0.123638
-0.123879
-0.123782
-0.123355
-0.122592
-0.121716
0.0167516
0.0130025
0.00934312
0.00549714
0.00152
-0.00260671
-0.00696013
-0.0113806
-0.0160518
-0.020847
-0.0257443
-0.0308156
-0.0360074
-0.0412077
-0.0464963
-0.0518596
-0.0571532
-0.0623955
-0.0675916
-0.0727005
-0.077626
-0.0823371
-0.0868698
-0.0911623
-0.0952034
-0.0988707
-0.102247
-0.10531
-0.108023
-0.110392
-0.11235
-0.113964
-0.115227
-0.116132
-0.116689
-0.11689
-0.116768
-0.116329
-0.115568
-0.114701
0.0160029
0.0124298
0.00893914
0.00527438
0.00148546
-0.00244353
-0.00658189
-0.0107846
-0.0152174
-0.0197648
-0.0244065
-0.0292068
-0.0341163
-0.0390328
-0.0440281
-0.0490895
-0.0540852
-0.0590311
-0.0639306
-0.0687461
-0.0733895
-0.0778312
-0.0821033
-0.0861483
-0.0899556
-0.0934126
-0.0965936
-0.0994768
-0.102029
-0.104255
-0.106092
-0.107601
-0.108776
-0.109609
-0.110109
-0.11027
-0.110122
-0.109669
-0.108908
-0.108047
0.0153068
0.0119006
0.00856975
0.00507642
0.00146558
-0.00227648
-0.00621217
-0.0102096
-0.0144185
-0.0187333
-0.023135
-0.0276811
-0.0323262
-0.0369769
-0.0416979
-0.046477
-0.0511937
-0.0558617
-0.0604833
-0.0650234
-0.069401
-0.0735888
-0.0776146
-0.0814252
-0.0850106
-0.088267
-0.0912611
-0.0939727
-0.0963702
-0.0984572
-0.100177
-0.101584
-0.102672
-0.103433
-0.103878
-0.103998
-0.103822
-0.103354
-0.102592
-0.101735
0.014659
0.011411
0.00823192
0.00490108
0.00145904
-0.00210619
-0.00585062
-0.00965423
-0.0136523
-0.0177481
-0.021924
-0.0262316
-0.0306286
-0.0350302
-0.0394943
-0.0440089
-0.0484641
-0.0528715
-0.0572319
-0.0615129
-0.0656407
-0.0695888
-0.0733819
-0.0769707
-0.0803456
-0.083411
-0.0862269
-0.0887738
-0.0910228
-0.0929765
-0.0945821
-0.0958897
-0.0968932
-0.097585
-0.097974
-0.0980541
-0.0978499
-0.0973669
-0.096602
-0.0957467
0.0140555
0.0109578
0.007923
0.00474638
0.00146442
-0.00193328
-0.00549682
-0.00911719
-0.0129163
-0.0168057
-0.0207691
-0.0248522
-0.0290163
-0.033184
-0.0374071
-0.0416737
-0.0458833
-0.0500456
-0.0541608
-0.0581984
-0.0620905
-0.0658126
-0.0693859
-0.0727649
-0.0759401
-0.0788239
-0.0814698
-0.0838598
-0.0859664
-0.087792
-0.0892881
-0.0904997
-0.0914208
-0.092045
-0.0923797
-0.0924199
-0.0921878
-0.0916889
-0.0909204
-0.0900656
0.0134927
0.0105381
0.00764057
0.0046104
0.00148042
-0.00175825
-0.00515052
-0.00859727
-0.0122084
-0.015903
-0.0196659
-0.0235379
-0.027483
-0.0314309
-0.0354276
-0.0394611
-0.0434399
-0.0473719
-0.0512562
-0.0550646
-0.0587349
-0.0622436
-0.0656093
-0.0687897
-0.0717757
-0.0744869
-0.0769712
-0.0792112
-0.0811821
-0.0828853
-0.0842758
-0.0853949
-0.0862368
-0.0867951
-0.0870772
-0.0870781
-0.0868186
-0.0863038
-0.0855312
-0.0846758
0.0129676
0.0101491
0.0073824
0.00449146
0.00150595
-0.00158166
-0.0048115
-0.00809357
-0.0115269
-0.0150375
-0.0186112
-0.0222842
-0.0260234
-0.0297643
-0.0335477
-0.0373622
-0.0411237
-0.0448388
-0.048506
-0.0520986
-0.0555595
-0.0588669
-0.0620365
-0.065029
-0.0678359
-0.0703832
-0.0727137
-0.0748114
-0.0766524
-0.0782385
-0.0795282
-0.0805584
-0.0813239
-0.081819
-0.08205
-0.082013
-0.0817266
-0.0811961
-0.0804191
-0.0795623
0.0124771
0.0097884
0.00714645
0.00438808
0.00153999
-0.00140404
-0.00447977
-0.00760559
-0.0108705
-0.0142071
-0.017602
-0.0210875
-0.0246326
-0.0281782
-0.0317608
-0.0353689
-0.0389257
-0.0424366
-0.0458991
-0.0492884
-0.052552
-0.055669
-0.0586532
-0.0614682
-0.0641056
-0.0664973
-0.0686819
-0.0706439
-0.0723616
-0.0738361
-0.0750292
-0.0759744
-0.0766669
-0.0771009
-0.077283
-0.0772093
-0.076897
-0.0763513
-0.0755698
-0.0747111
0.0120186
0.00945363
0.00693079
0.00429875
0.00158156
-0.00122588
-0.00415537
-0.00713284
-0.0102383
-0.01341
-0.0166359
-0.0199442
-0.023306
-0.0266673
-0.0300604
-0.0334741
-0.036838
-0.0401562
-0.0434258
-0.0466235
-0.0497006
-0.0526379
-0.055447
-0.0580941
-0.060571
-0.0628153
-0.0648613
-0.0666947
-0.068295
-0.0696632
-0.0707643
-0.0716284
-0.0722508
-0.0726268
-0.072762
-0.0726531
-0.0723161
-0.0717557
-0.0709701
-0.0701091
0.0115896
0.00914268
0.0067336
0.00422204
0.00162961
-0.00104776
-0.00383831
-0.00667482
-0.00962896
-0.0126447
-0.0157104
-0.0188511
-0.0220397
-0.0252268
-0.0284411
-0.0316713
-0.0348531
-0.0379896
-0.0410772
-0.044094
-0.0469953
-0.0497628
-0.0524063
-0.0548947
-0.0572197
-0.0593243
-0.0612391
-0.0629502
-0.0644392
-0.0657064
-0.0667199
-0.0675067
-0.0680628
-0.0683832
-0.0684737
-0.0683314
-0.067971
-0.0673967
-0.0666072
-0.0657441
0.0111878
0.00885362
0.00655325
0.00415663
0.00168321
-0.00087022
-0.00352865
-0.00623105
-0.00904179
-0.0119095
-0.0148234
-0.0178054
-0.0208302
-0.0238527
-0.0268978
-0.0299548
-0.0329647
-0.0359294
-0.0388453
-0.0416914
-0.0444266
-0.0470336
-0.0495207
-0.051859
-0.0540405
-0.0560127
-0.0578029
-0.0593986
-0.0607817
-0.0619531
-0.0628835
-0.063597
-0.0640897
-0.0643577
-0.0644059
-0.0642321
-0.0638493
-0.0632624
-0.0624695
-0.0616045
0.0108112
0.00858468
0.00638824
0.00410136
0.00174151
-0.000693735
-0.00322637
-0.00580126
-0.0084757
-0.011203
-0.0139729
-0.0168045
-0.0196743
-0.0225407
-0.025426
-0.0283194
-0.0311667
-0.0339693
-0.0367228
-0.0394078
-0.0419862
-0.0444415
-0.0467808
-0.0489772
-0.0510228
-0.0528697
-0.0545422
-0.056028
-0.0573113
-0.058392
-0.0592433
-0.0598874
-0.0603205
-0.0605386
-0.060547
-0.0603434
-0.0599401
-0.0593415
-0.058546
-0.0576795
0.0104579
0.00833426
0.00623721
0.00405515
0.00180374
-0.000518698
-0.00293166
-0.00538496
-0.00792999
-0.0105238
-0.013157
-0.0158461
-0.0185689
-0.0212877
-0.0240216
-0.0267602
-0.029454
-0.0321031
-0.0347033
-0.037236
-0.0396661
-0.0419781
-0.0441778
-0.04624
-0.0481572
-0.0498855
-0.0514464
-0.0528287
-0.0540172
-0.0550121
-0.0557889
-0.0563673
-0.0567438
-0.0569153
-0.0568862
-0.0566548
-0.0562326
-0.0556235
-0.0548264
-0.0539591
0.0101263
0.00810087
0.00609892
0.00401701
0.00186921
-0.000345589
-0.00264442
-0.00498195
-0.00740382
-0.00987087
-0.0123741
-0.0149279
-0.0175115
-0.0200902
-0.0226809
-0.0252731
-0.0278214
-0.0303256
-0.0327807
-0.0351695
-0.0374595
-0.039636
-0.0417036
-0.043639
-0.0454348
-0.0470511
-0.0485066
-0.0497907
-0.0508899
-0.0518038
-0.05251
-0.0530264
-0.05335
-0.0534774
-0.0534133
-0.0531563
-0.0527167
-0.0520987
-0.0513008
-0.0504339
0.00981462
0.00788318
0.00597225
0.00398607
0.00193727
-0.000174675
-0.00236478
-0.00459184
-0.00689652
-0.00924297
-0.0116227
-0.014048
-0.0164996
-0.0189455
-0.0214003
-0.023854
-0.0262647
-0.0286315
-0.0309497
-0.0332024
-0.0353597
-0.0374081
-0.0393509
-0.0411666
-0.0428478
-0.044358
-0.0457138
-0.0469056
-0.0479203
-0.0487576
-0.0493974
-0.0498555
-0.050129
-0.0502156
-0.0501188
-0.0498382
-0.0493831
-0.0487574
-0.0479602
-0.0470947
0.00952156
0.00767995
0.00585615
0.0039615
0.00200739
-6.35987e-06
-0.00209269
-0.00421437
-0.00640746
-0.00863915
-0.0109014
-0.0132048
-0.015531
-0.0178509
-0.020177
-0.0224993
-0.0247797
-0.0270166
-0.0292049
-0.031329
-0.0333611
-0.0352883
-0.0371131
-0.0388156
-0.0403886
-0.0417986
-0.0430604
-0.0441646
-0.0450999
-0.0458653
-0.0464424
-0.0468456
-0.0470726
-0.0471206
-0.0469939
-0.0466917
-0.0462228
-0.0455913
-0.0447957
-0.0439331
0.00924577
0.00749007
0.00574969
0.00394261
0.00207897
0.000159151
-0.00182822
-0.0038493
-0.00593606
-0.0080585
-0.010209
-0.0123964
-0.0146036
-0.0168039
-0.0190078
-0.0212058
-0.0233627
-0.0254765
-0.0275421
-0.0295445
-0.031458
-0.0332706
-0.034984
-0.0365795
-0.0380502
-0.0393657
-0.0405386
-0.0415607
-0.0424208
-0.0431184
-0.0436368
-0.0439887
-0.0441718
-0.0441845
-0.0440301
-0.0437084
-0.0432278
-0.0425916
-0.0417992
-0.0409407
0.00898601
0.00731248
0.005652
0.00392865
0.00215161
0.000321521
-0.00157136
-0.00349637
-0.00548181
-0.00750018
-0.00954425
-0.0116214
-0.0137156
-0.0158022
-0.0178903
-0.0199704
-0.0220102
-0.0240075
-0.0259568
-0.027844
-0.0296456
-0.0313498
-0.0329577
-0.0344522
-0.0358264
-0.0370525
-0.0381418
-0.0390861
-0.0398758
-0.0405098
-0.0409728
-0.0412766
-0.0414194
-0.041399
-0.0412195
-0.0408804
-0.0403896
-0.0397508
-0.0389627
-0.0381101
0.00874118
0.00714624
0.00556228
0.00391907
0.00222484
0.000480575
-0.00132208
-0.00315536
-0.00504419
-0.00696341
-0.00890613
-0.0108784
-0.0128652
-0.0148438
-0.0168219
-0.0187902
-0.0207191
-0.0226058
-0.0244451
-0.0262234
-0.0279188
-0.0295206
-0.031029
-0.032428
-0.0337112
-0.034853
-0.0358633
-0.0367348
-0.0374579
-0.0380321
-0.0384435
-0.0387025
-0.0388074
-0.038757
-0.0385544
-0.0382
-0.037701
-0.0370607
-0.0362787
-0.0354333
0.00851022
0.00699048
0.00547981
0.00391328
0.0022983
0.00063611
-0.00108039
-0.00282603
-0.00462273
-0.00644746
-0.00829362
-0.0101661
-0.0120508
-0.0139268
-0.0158004
-0.0176627
-0.0194864
-0.0212685
-0.0230033
-0.0246785
-0.0262738
-0.0277786
-0.0291929
-0.0305018
-0.031699
-0.0327613
-0.0336974
-0.0345
-0.0351609
-0.035679
-0.0360419
-0.0362591
-0.0363294
-0.036251
-0.0360278
-0.03566
-0.0351543
-0.0345145
-0.0337395
-0.0329032
0.00829219
0.00684438
0.00540394
0.00391079
0.00237162
0.000787944
-0.00084627
-0.00250817
-0.004217
-0.00595165
-0.0077058
-0.00948331
-0.0112709
-0.0130493
-0.0148237
-0.0165855
-0.0183093
-0.0199921
-0.0216282
-0.0232059
-0.0247061
-0.0261193
-0.0274447
-0.0286686
-0.0297848
-0.0307721
-0.031638
-0.0323763
-0.0329784
-0.033444
-0.0337618
-0.0339403
-0.0339781
-0.0338746
-0.0336328
-0.0332534
-0.0327429
-0.0321046
-0.0313384
-0.0305122
0.0080862
0.00670723
0.00533402
0.0039111
0.0024445
0.000935909
-0.000619694
-0.00220159
-0.0038266
-0.00547533
-0.00714176
-0.00882886
-0.0105241
-0.0122097
-0.01389
-0.0155562
-0.0171854
-0.018774
-0.0203165
-0.0218017
-0.0232123
-0.0245388
-0.0257802
-0.0269238
-0.0279636
-0.0288803
-0.0296804
-0.0303576
-0.030905
-0.0313215
-0.0315971
-0.0317395
-0.0317479
-0.0316212
-0.0313628
-0.0309737
-0.0304597
-0.0298247
-0.0290678
-0.0282533
0.00789144
0.00657829
0.0052695
0.0039138
0.00251661
0.00107987
-0.000400622
-0.00190606
-0.00345109
-0.00501788
-0.00660068
-0.00820169
-0.00980906
-0.0114065
-0.0129971
-0.0145729
-0.0161122
-0.0176114
-0.0190653
-0.0204632
-0.0217887
-0.0230333
-0.0241954
-0.0252632
-0.026231
-0.0270812
-0.0278191
-0.0284395
-0.0289352
-0.0293057
-0.0295422
-0.0296513
-0.0296322
-0.0294848
-0.0292117
-0.0288144
-0.0282985
-0.0276674
-0.0269215
-0.0261196
0.00770713
0.00645697
0.00520985
0.00391845
0.00258775
0.00121972
-0.00018901
-0.00162138
-0.00309008
-0.00457873
-0.0060818
-0.00760083
-0.00912464
-0.0106381
-0.0121437
-0.0136334
-0.0150874
-0.016502
-0.0178719
-0.0191869
-0.0204322
-0.0215992
-0.0226864
-0.0236827
-0.0245826
-0.0253701
-0.0260498
-0.0266163
-0.027064
-0.0273917
-0.0275916
-0.0276698
-0.0276259
-0.0274593
-0.0271734
-0.0267694
-0.0262527
-0.0256272
-0.0248923
-0.0241042
0.00753259
0.00634264
0.0051546
0.00392478
0.00265763
0.00135536
1.51948e-05
-0.00134734
-0.0027432
-0.00415732
-0.00558439
-0.00702534
-0.0084696
-0.0099033
-0.011328
-0.012736
-0.0141091
-0.0154433
-0.0167337
-0.0179704
-0.0191395
-0.0202333
-0.0212497
-0.0221785
-0.0230145
-0.0237429
-0.0243677
-0.0248842
-0.0252866
-0.0255743
-0.0257403
-0.02579
-0.0257229
-0.0255395
-0.0252422
-0.0248328
-0.0243166
-0.0236969
-0.0229745
-0.0222003
0.00736712
0.0062348
0.00510332
0.00393238
0.00272611
0.00148669
0.000212041
-0.00108375
-0.0024101
-0.00375312
-0.00510775
-0.00647433
-0.00784292
-0.00920062
-0.0105485
-0.0118789
-0.0131751
-0.0144333
-0.0156482
-0.0168108
-0.017908
-0.0189324
-0.019882
-0.0207472
-0.0215229
-0.0221957
-0.0227691
-0.0232382
-0.0235985
-0.023849
-0.0239833
-0.0240066
-0.0239188
-0.0237197
-0.0234126
-0.0229991
-0.022484
-0.0218714
-0.021161
-0.0204015
0.00721017
0.00613289
0.00505557
0.00394101
0.00279291
0.00161365
0.000401589
-0.000830428
-0.00209043
-0.00336564
-0.00465119
-0.00594694
-0.00724351
-0.00852898
-0.00980368
-0.0110605
-0.0122838
-0.0134697
-0.0146132
-0.0157056
-0.0167347
-0.0176937
-0.0185801
-0.0193853
-0.0201042
-0.0207248
-0.0212496
-0.0216748
-0.0219954
-0.0222111
-0.0223162
-0.0223152
-0.022208
-0.0219952
-0.0216795
-0.0212627
-0.0207498
-0.0201441
-0.0194467
-0.0187014
0.00706108
0.00603647
0.00501097
0.0039503
0.00285793
0.00173616
0.000583897
-0.000587178
-0.00178386
-0.0029944
-0.00421407
-0.00544237
-0.00667042
-0.00788706
-0.00909234
-0.0102792
-0.0114333
-0.0125508
-0.0136266
-0.0146525
-0.0156173
-0.0165142
-0.0173411
-0.0180896
-0.0187551
-0.0193265
-0.0198059
-0.0201895
-0.0204734
-0.0206567
-0.0207345
-0.020711
-0.0205864
-0.020361
-0.0200379
-0.0196188
-0.0191083
-0.0185104
-0.0178252
-0.0170944
0.00691937
0.00594506
0.00496916
0.00396009
0.00292094
0.00185418
0.000759033
-0.000353818
-0.00149008
-0.00263892
-0.00379579
-0.00495984
-0.00612265
-0.00727391
-0.00841308
-0.0095336
-0.0106221
-0.0116746
-0.0126863
-0.0136493
-0.0145531
-0.0153916
-0.0161622
-0.0168574
-0.0174725
-0.0179976
-0.0184342
-0.0187792
-0.0190284
-0.0191815
-0.0192342
-0.01919
-0.0190492
-0.0188128
-0.0184831
-0.0180623
-0.017555
-0.0169644
-0.0162918
-0.0155746
0.00678449
0.00585826
0.00492982
0.00397005
0.00298187
0.00196765
0.000927066
-0.000130166
-0.00120878
-0.00229877
-0.00339578
-0.00449862
-0.00559935
-0.00668834
-0.00776484
-0.0088223
-0.00984847
-0.0108394
-0.0117903
-0.0126938
-0.0135401
-0.0143232
-0.0150408
-0.0156856
-0.0162534
-0.0167348
-0.0171315
-0.01744
-0.0176571
-0.0177821
-0.0178112
-0.0177479
-0.0175927
-0.0173459
-0.0170107
-0.0165889
-0.0160847
-0.015502
-0.0148411
-0.0141371
0.00665602
0.0057757
0.00489265
0.00398005
0.00304052
0.00207656
0.00108807
8.3961e-05
-0.000939662
-0.00197354
-0.00301347
-0.00405801
-0.00509966
-0.00612951
-0.00714632
-0.008144
-0.00911106
-0.0100436
-0.010937
-0.0117841
-0.0125759
-0.0133069
-0.0139743
-0.0145717
-0.0150949
-0.0155354
-0.0158943
-0.016169
-0.0163558
-0.0164547
-0.0164622
-0.0163813
-0.0162124
-0.0159568
-0.0156166
-0.0151942
-0.0146936
-0.0141181
-0.0134688
-0.0127771
0.00653347
0.00569702
0.00485737
0.00398981
0.00309684
0.00218087
0.00124213
0.000288743
-0.000682423
-0.00166281
-0.00264833
-0.00363736
-0.00462282
-0.00559633
-0.00655656
-0.00749741
-0.00840837
-0.00928561
-0.0101244
-0.0109182
-0.0116587
-0.0123402
-0.0129605
-0.0135132
-0.0139943
-0.0143963
-0.0147201
-0.0149627
-0.0151216
-0.0151962
-0.0151834
-0.0150862
-0.0149054
-0.0146413
-0.0142971
-0.0138744
-0.0133772
-0.0128092
-0.0121704
-0.0114904
0.00641646
0.00562188
0.0048237
0.00399922
0.00315068
0.00228058
0.00138933
0.000484361
-0.000436777
-0.00136616
-0.00229986
-0.00323605
-0.00416803
-0.00508806
-0.00599439
-0.00688138
-0.00773915
-0.00856385
-0.00935113
-0.0100946
-0.0107863
-0.0114213
-0.011997
-0.0125075
-0.0129492
-0.0133151
-0.0136057
-0.0138188
-0.0139513
-0.0140032
-0.0139718
-0.0138598
-0.0136675
-0.0133963
-0.0130483
-0.0126258
-0.0121323
-0.0115709
-0.0109426
-0.0102731
0.00630456
0.00554995
0.00479141
0.00400803
0.003202
0.00237568
0.00152974
0.000670988
-0.000202451
-0.00108323
-0.00196755
-0.00285345
-0.0037346
-0.0046037
-0.00545896
-0.00629476
-0.00710206
-0.0078771
-0.00861545
-0.00931122
-0.00995706
-0.0105481
-0.0110817
-0.0115527
-0.0119573
-0.0122892
-0.0125489
-0.0127339
-0.0128421
-0.012873
-0.0128243
-0.0126984
-0.0124962
-0.0122182
-0.0118672
-0.011445
-0.0109549
-0.0104005
-0.00978153
-0.00912225
0.00619742
0.00548093
0.00476024
0.00401617
0.00325065
0.00246616
0.00166345
0.000848796
2.08256e-05
-0.000813646
-0.00165094
-0.00248899
-0.00332178
-0.00414256
-0.00494919
-0.00573651
-0.00649598
-0.00722385
-0.00791605
-0.00856677
-0.00916912
-0.00971868
-0.0102128
-0.0106464
-0.0110161
-0.0113162
-0.0115468
-0.011706
-0.0117913
-0.0118027
-0.0117381
-0.0115996
-0.0113879
-0.0111042
-0.0107505
-0.0103289
-0.00984255
-0.00929426
-0.00868474
-0.00803478
0.00609465
0.00541453
0.00473001
0.0040234
0.00329663
0.00255203
0.00179055
0.00101796
0.000233313
-0.000557048
-0.00134957
-0.0021421
-0.00292894
-0.0037037
-0.00446432
-0.00520558
-0.00591969
-0.00660302
-0.0072514
-0.00785951
-0.00842099
-0.00893135
-0.00938816
-0.00978668
-0.0101237
-0.0103939
-0.0105975
-0.0107322
-0.0107965
-0.0107897
-0.0107103