/*--------------------------------*- C++ -*----------------------------------*\
| =========                 |                                                 |
| \\      /  F ield         | OpenFOAM: The Open Source CFD Toolbox           |
|  \\    /   O peration     | Version:  3.0.1                                 |
|   \\  /    A nd           | Web:      www.OpenFOAM.org                      |
|    \\/     M anipulation  |                                                 |
\*---------------------------------------------------------------------------*/
FoamFile
{
    version     2.0;
    format      ascii;
    class       surfaceScalarField;
    location    "500";
    object      phi;
}
// * * * * * * * * * * * * * * * * * * * * * * * * * * * * * * * * * * * * * //

dimensions      [0 3 -1 0 0 0 0];

internalField   nonuniform List<scalar> 
115520
(
0.0140367
-0.00180828
-0.0122284
0.0150665
-0.0010298
0.0151161
-4.96475e-05
0.0146422
0.00047389
0.0139158
0.000726484
0.0130983
0.000817511
0.0123757
0.000722598
0.0117075
0.000668189
0.0111989
0.00050856
0.0108496
0.000349274
0.0106106
0.000239012
0.0104918
0.000118845
0.0104943
-2.49998e-06
0.0105593
-6.50047e-05
0.0106662
-0.000106923
0.0108156
-0.00014941
0.0109945
-0.000178921
0.0111833
-0.00018876
0.0113726
-0.000189293
0.0115631
-0.000190543
0.0117581
-0.000194928
0.0119471
-0.000189017
0.012126
-0.000178938
0.0122918
-0.000165824
0.0124541
-0.000162217
0.0126077
-0.000153611
0.0127501
-0.000142385
0.0128796
-0.00012954
0.0129949
-0.00011528
0.0131034
-0.000108489
0.0132008
-9.74542e-05
0.0132861
-8.5256e-05
0.0133587
-7.2573e-05
0.0134182
-5.95473e-05
0.0134543
-3.60694e-05
0.0134386
1.56252e-05
0.0133968
4.18816e-05
0.0133568
3.99914e-05
0.0133484
8.39288e-06
-4.59092e-05
0.0133943
0.00918536
-0.00293465
-0.00805898
0.0101919
-0.00203634
0.0111415
-0.00099927
0.0119876
-0.000372141
0.0126696
4.44135e-05
0.0131567
0.000330433
0.0134867
0.000392583
0.0136553
0.000499573
0.0137399
0.000423991
0.0137707
0.000318526
0.0137443
0.000265373
0.0137092
0.000153937
0.0137061
5.75221e-07
0.0137064
-6.53142e-05
0.0137182
-0.000118699
0.0137723
-0.000203499
0.0138532
-0.000259854
0.0139453
-0.00028082
0.0140463
-0.000290324
0.0141667
-0.000310924
0.0143028
-0.000331065
0.0144395
-0.000325684
0.0145745
-0.000313882
0.0147052
-0.000296519
0.0148458
-0.000302904
0.0149808
-0.000288573
0.0151079
-0.000269474
0.0152258
-0.000247407
0.0153331
-0.000222584
0.0154403
-0.000215766
0.0155367
-0.000193846
0.0156213
-0.000169854
0.0156932
-0.000144424
0.0157512
-0.000117542
0.0157985
-8.3407e-05
0.0158309
-1.67113e-05
0.0158527
1.99998e-05
0.0158704
2.23507e-05
0.0158904
-1.16707e-05
-8.29137e-05
0.0159275
0.00857284
-0.00397552
-0.00753196
0.0095138
-0.00297731
0.0103742
-0.00185964
0.01111
-0.00110797
0.0117628
-0.000608376
0.0123361
-0.000242888
0.0128069
-7.8254e-05
0.0132025
0.000104051
0.0135112
0.00011524
0.0137525
7.72474e-05
0.0139354
8.2507e-05
0.0140793
1.00227e-05
0.0142102
-0.00013033
0.0143232
-0.000178324
0.0144278
-0.000223348
0.0145491
-0.000324723
0.0146808
-0.000391617
0.0148152
-0.000415155
0.0149525
-0.000427692
0.0151016
-0.000459961
0.0152594
-0.000488843
0.0154152
-0.000481576
0.0155682
-0.000466879
0.0157169
-0.00044514
0.0158706
-0.000456686
0.0160174
-0.000435288
0.0161557
-0.000407825
0.016285
-0.000376697
0.0164044
-0.000341953
0.0165203
-0.000331654
0.0166245
-0.000298074
0.0167165
-0.000261878
0.0167958
-0.00022374
0.0168618
-0.000183502
0.0169164
-0.000137974
0.0169563
-5.66741e-05
0.0169825
-6.14755e-06
0.0169992
5.65374e-06
0.0170077
-2.02212e-05
-8.32724e-05
0.0170081
0.00778863
-0.00486523
-0.00689893
0.00865667
-0.00384534
0.00950446
-0.00270743
0.0102779
-0.00188141
0.0109832
-0.0013137
0.0116176
-0.000877221
0.0121683
-0.000629043
0.0126621
-0.000389658
0.0130859
-0.000308633
0.0134521
-0.000288945
0.0137678
-0.00023321
0.01404
-0.000262141
0.0142836
-0.000373886
0.0144995
-0.000394296
0.0146936
-0.000417451
0.0148835
-0.000514569
0.0150694
-0.000577564
0.0152487
-0.00059442
0.0154233
-0.000602346
0.0156016
-0.000638227
0.0157828
-0.000669984
0.0159593
-0.000658126
0.0161308
-0.000638358
0.0162964
-0.000610749
0.0164644
-0.000624648
0.0166246
-0.000595518
0.0167758
-0.000559053
0.0169174
-0.000518246
0.0170485
-0.000473102
0.0171751
-0.000458218
0.0172898
-0.00041277
0.017392
-0.000364103
0.0174812
-0.000312986
0.017557
-0.000259264
0.0176218
-0.000202795
0.0176736
-0.000108455
0.0177115
-4.40006e-05
0.017737
-1.98881e-05
0.0177513
-3.44648e-05
-8.5915e-05
0.0177539
0.00737329
-0.00568595
-0.00655257
0.00819005
-0.0046621
0.00901069
-0.00352806
0.00979071
-0.00266143
0.0105287
-0.00205172
0.0112148
-0.00156328
0.0118257
-0.00123994
0.0123897
-0.00095365
0.012887
-0.000805922
0.0133281
-0.000730093
0.0137231
-0.000628178
0.0140727
-0.0006118
0.0143861
-0.000687235
0.0146694
-0.000677589
0.0149266
-0.000674687
0.0151693
-0.000757257
0.0154003
-0.00080859
0.0156194
-0.000813476
0.0158288
-0.000811774
0.0160356
-0.000844971
0.0162401
-0.000874513
0.0164374
-0.000855427
0.0166274
-0.000828403
0.0168099
-0.000793245
0.0169915
-0.000806243
0.0171643
-0.000768256
0.0173271
-0.000721881
0.0174795
-0.000670647
0.0176209
-0.000614536
0.0177559
-0.000593221
0.0178785
-0.000535344
0.0179881
-0.000473685
0.0180843
-0.0004092
0.0181668
-0.000341768
0.0182377
-0.000273659
0.0182953
-0.000166078
0.0183384
-8.7125e-05
0.0183674
-4.88694e-05
0.0183822
-4.92918e-05
-8.60073e-05
0.0183823
0.00707078
-0.00646371
-0.00629302
0.00785248
-0.0054438
0.00864635
-0.00432194
0.00941927
-0.00343434
0.01017
-0.00280247
0.0108879
-0.00228115
0.0115455
-0.00189751
0.0121673
-0.00157548
0.0127285
-0.00136709
0.0132364
-0.00123802
0.0137012
-0.00109297
0.0141196
-0.00103019
0.0144964
-0.00106402
0.0148407
-0.00102196
0.0151555
-0.000989504
0.0154479
-0.00104964
0.0157224
-0.00108303
0.0159803
-0.00107138
0.016224
-0.00105554
0.0164594
-0.00108038
0.0166879
-0.001103
0.0169064
-0.00107394
0.0171153
-0.00103727
0.0173146
-0.000992518
0.0175099
-0.00100162
0.0176952
-0.000953465
0.0178694
-0.000896101
0.0180322
-0.000833466
0.0181832
-0.000765509
0.0183262
-0.000736287
0.0184562
-0.000665338
0.0185726
-0.000590097
0.0186751
-0.000511681
0.0187634
-0.000430008
0.0188392
-0.000349531
0.0189014
-0.000228212
0.0189484
-0.000134178
0.0189803
-8.079e-05
0.018997
-6.59042e-05
-8.69125e-05
0.0189979
0.00686423
-0.00721946
-0.00610848
0.00762575
-0.00620532
0.00840082
-0.00509701
0.00916412
-0.00419764
0.00991633
-0.00355467
0.0106491
-0.00301389
0.0113356
-0.00258401
0.0119976
-0.00223753
0.0126078
-0.00197731
0.0131704
-0.00180054
0.0136945
-0.00161714
0.0141735
-0.00150913
0.0146081
-0.00149863
0.0150093
-0.00142313
0.0153787
-0.00135896
0.0157197
-0.0013906
0.0160377
-0.00140101
0.0163353
-0.00136906
0.0166149
-0.00133514
0.016881
-0.00134644
0.0171356
-0.00135764
0.0173775
-0.00131578
0.0176071
-0.00126691
0.0178249
-0.00121031
0.0180356
-0.00121232
0.0182346
-0.00115242
0.0184212
-0.00108273
0.0185952
-0.00100749
0.0187563
-0.000926607
0.0189078
-0.000887803
0.0190454
-0.000802947
0.0191687
-0.000713351
0.0192773
-0.00062027
0.0193709
-0.000523655
0.0194513
-0.000429852
0.0195171
-0.000294016
0.019567
-0.000184151
0.0196009
-0.000114692
0.0196185
-8.34406e-05
-8.77133e-05
0.0196193
0.00671999
-0.0079662
-0.00597326
0.00747262
-0.00695795
0.00823781
-0.0058622
0.00899536
-0.0049552
0.00974717
-0.00430648
0.0104873
-0.00375403
0.0111919
-0.00328859
0.0118807
-0.00292631
0.0125266
-0.00262328
0.0131316
-0.00240555
0.013704
-0.00218948
0.0142344
-0.00203951
0.0147204
-0.00198464
0.0151734
-0.0018762
0.0155941
-0.00177964
0.0159822
-0.00177867
0.0163435
-0.00176237
0.0166817
-0.00170717
0.0169985
-0.00165194
0.0172971
-0.00164513
0.0175802
-0.0016407
0.0178477
-0.00158327
0.0181004
-0.00151961
0.0183388
-0.00144876
0.0185669
-0.00144038
0.0187814
-0.00136694
0.0189821
-0.00128339
0.0191687
-0.00119414
0.0193412
-0.00109903
0.0195022
-0.00104884
0.0196483
-0.000949069
0.0197791
-0.000844178
0.0198944
-0.000735532
0.0199938
-0.0006231
0.0200789
-0.000514897
0.0201485
-0.000363648
0.0202015
-0.000237127
0.0202375
-0.000150703
0.0202562
-0.000102178
-8.88709e-05
0.0202574
0.00662154
-0.00871304
-0.00587469
0.00737367
-0.00771008
0.00813667
-0.00662519
0.00889378
-0.00571231
0.00964739
-0.00506008
0.0103934
-0.00450004
0.0111112
-0.00400634
0.0118187
-0.00363389
0.0124911
-0.00329568
0.0131289
-0.00304332
0.0137395
-0.00280002
0.0143123
-0.00261233
0.0148426
-0.00251492
0.0153415
-0.00237517
0.0158087
-0.00224682
0.016241
-0.002211
0.0166443
-0.00216564
0.0170223
-0.00208518
0.0173766
-0.00200619
0.0177089
-0.00197748
0.018022
-0.00195376
0.0183169
-0.00187821
0.0185946
-0.00179728
0.0188557
-0.00170983
0.0191031
-0.00168777
0.019335
-0.0015989
0.0195514
-0.0014998
0.0197523
-0.00139498
0.0199374
-0.00128419
0.0201093
-0.00122067
0.020265
-0.00110483
0.0204044
-0.000983545
0.0205271
-0.000858288
0.0206331
-0.000729026
0.0207234
-0.000605227
0.0207973
-0.000437554
0.0208536
-0.000293462
0.0208921
-0.000189125
0.0209123
-0.000122378
-9.05834e-05
0.020914
0.0065577
-0.00946655
-0.00580419
0.00731567
-0.00846804
0.00808269
-0.00739222
0.00884446
-0.00647407
0.00960342
-0.00581905
0.0103567
-0.0052533
0.0110865
-0.00473613
0.0118093
-0.00435677
0.0125028
-0.00398916
0.0131668
-0.00370734
0.0138082
-0.00344136
0.014416
-0.00322019
0.0149841
-0.003083
0.015523
-0.00291409
0.0160316
-0.00275538
0.0165046
-0.00268397
0.0169472
-0.00260833
0.0173635
-0.00250146
0.0177544
-0.00239706
0.0181204
-0.00234355
0.0184642
-0.0022975
0.0187876
-0.00220161
0.0190915
-0.00210118
0.0193766
-0.00199492
0.0196449
-0.00195605
0.0198958
-0.00184984
0.0201295
-0.00173347
0.0203459
-0.00161143
0.0205452
-0.00148342
0.020729
-0.00140455
0.0208956
-0.00127134
0.0210445
-0.00113247
0.0211756
-0.000989434
0.0212888
-0.000842218
0.0213851
-0.000701534
0.0214639
-0.000516335
0.0215241
-0.000353677
0.0215654
-0.000230419
0.0215875
-0.000144449
-9.31965e-05
0.0215901
0.0065211
-0.0102317
-0.00575594
0.00728981
-0.00923676
0.00806588
-0.00816829
0.00883677
-0.00724496
0.0096048
-0.00658707
0.0103678
-0.00601629
0.0111104
-0.00547874
0.0118477
-0.00509411
0.0125598
-0.00470125
0.0132464
-0.00439393
0.0139137
-0.00410867
0.0145513
-0.00385774
0.015152
-0.00368373
0.0157258
-0.0034879
0.016271
-0.00330056
0.0167808
-0.00319381
0.0172601
-0.00308755
0.0177124
-0.00295376
0.0181383
-0.00282297
0.0185373
-0.00274256
0.0189116
-0.00267182
0.0192638
-0.00255375
0.0195945
-0.00243188
0.0199044
-0.00230484
0.0201947
-0.00224631
0.0204657
-0.00212092
0.0207178
-0.00198555
0.020951
-0.00184464
0.0211654
-0.00169783
0.0213624
-0.00160157
0.0215407
-0.00144964
0.0217001
-0.00129187
0.0218405
-0.00112981
0.0219617
-0.000963435
0.0220647
-0.000804503
0.022149
-0.000600598
0.0222136
-0.000418301
0.0222582
-0.000275046
0.0222826
-0.000168789
-9.70393e-05
0.0222864
0.00650659
-0.0110125
-0.00572584
0.00729001
-0.0100202
0.00807923
-0.00895751
0.00886308
-0.00802881
0.00964362
-0.00736761
0.0104192
-0.00679181
0.0111763
-0.00623589
0.0119288
-0.00584659
0.0126589
-0.00543135
0.0133663
-0.00510135
0.0140568
-0.0047992
0.0147206
-0.00452152
0.0153503
-0.00431346
0.0159551
-0.00409271
0.0165331
-0.00387848
0.0170764
-0.00373721
0.0175894
-0.00360051
0.0180754
-0.00343973
0.0185345
-0.00328205
0.0189652
-0.0031733
0.0193695
-0.0030761
0.0197501
-0.00293438
0.0201077
-0.00278945
0.0204428
-0.0026399
0.0207556
-0.00255918
0.0210476
-0.00241287
0.0213189
-0.00225685
0.0215697
-0.00209545
0.0218001
-0.00192826
0.0220112
-0.0018126
0.0222021
-0.00164055
0.0223727
-0.00146254
0.0225231
-0.00128015
0.022653
-0.00109334
0.0227632
-0.000914744
0.0228535
-0.000690888
0.022923
-0.000487817
0.0229714
-0.000323431
0.0229984
-0.000195764
-0.00010241
0.0230038
0.00651051
-0.0118121
-0.0057109
0.00731192
-0.0108216
0.00811773
-0.00976332
0.00891785
-0.00882893
0.00971404
-0.00816381
0.0105049
-0.00758266
0.0112786
-0.0070096
0.0120476
-0.00661559
0.0127962
-0.00617991
0.013524
-0.00582921
0.0142365
-0.00551171
0.0149246
-0.00520957
0.015581
-0.00496985
0.0162141
-0.0047258
0.0168218
-0.0044862
0.0173961
-0.00431147
0.0179404
-0.00414482
0.0184579
-0.00395721
0.0189482
-0.00377245
0.0194094
-0.00363444
0.0198427
-0.00350947
0.0202513
-0.00334291
0.0206354
-0.00317357
0.0209956
-0.00300005
0.0213313
-0.00289494
0.0216445
-0.00272611
0.0219356
-0.00254787
0.0222045
-0.00236443
0.0224516
-0.00217533
0.0226773
-0.00203833
0.0228815
-0.00184473
0.0230641
-0.00164511
0.023225
-0.00144104
0.0233641
-0.00123247
0.0234821
-0.00103277
0.0235789
-0.00078767
0.0236537
-0.000562634
0.0237062
-0.000375928
0.0237361
-0.000225674
-0.000109555
0.0237433
0.00653017
-0.0126333
-0.00570894
0.00735241
-0.0116438
0.00817776
-0.0105887
0.00899703
-0.0096482
0.0098117
-0.00897848
0.0106205
-0.00839145
0.0114129
-0.00780203
0.0122002
-0.00740289
0.0129683
-0.00694803
0.013717
-0.00657791
0.0144513
-0.00624597
0.0151627
-0.00592102
0.0158445
-0.00565157
0.0165041
-0.00538546
0.0171396
-0.00512171
0.0177428
-0.00491463
0.0183166
-0.00471858
0.0188637
-0.0045044
0.0193838
-0.00429253
0.0198741
-0.00412468
0.0203356
-0.00397098
0.0207713
-0.00377865
0.0211815
-0.00358377
0.0215665
-0.00338502
0.0219252
-0.00325362
0.0222599
-0.00306081
0.0225709
-0.00285889
0.0228584
-0.00265193
0.0231225
-0.00243942
0.0233634
-0.00227923
0.0235813
-0.00206266
0.0237762
-0.00184004
0.0239481
-0.00161293
0.0240969
-0.00138126
0.0242231
-0.00115898
0.0243268
-0.000891313
0.0244072
-0.000643076
0.0244641
-0.00043282
0.0244972
-0.000258756
-0.000118659
0.0245063
0.00656361
-0.0134786
-0.00571827
0.00740916
-0.0124894
0.00825667
-0.0114362
0.00909767
-0.0104892
0.00993334
-0.00981415
0.0107625
-0.00922062
0.0115758
-0.00861529
0.0123832
-0.00821036
0.0131723
-0.0077371
0.0139428
-0.00734838
0.0146992
-0.00700241
0.015434
-0.00665578
0.0161405
-0.00635808
0.0168258
-0.00607076
0.0174879
-0.00578379
0.0181186
-0.00554533
0.0187204
-0.00532043
0.0192959
-0.00507991
0.0198444
-0.00484097
0.0203626
-0.00464292
0.0208514
-0.00445979
0.0213137
-0.00424091
0.0217494
-0.00401954
0.0221589
-0.00379445
0.0225404
-0.00363513
0.0228966
-0.00341699
0.0232277
-0.00319002
0.0235339
-0.00295813
0.0238153
-0.00272079
0.0240717
-0.00253565
0.0243037
-0.00229471
0.0245114
-0.00204771
0.0246946
-0.00179617
0.0248534
-0.00154004
0.0249881
-0.00129371
0.0250989
-0.00100211
0.0251853
-0.000729393
0.0252468
-0.000494314
0.0252832
-0.000295177
-0.000129847
0.0252944
0.0066093
-0.0143503
-0.00573763
0.00748044
-0.0133605
0.00835248
-0.0123082
0.00921754
-0.0113542
0.0100766
-0.0106732
0.0109284
-0.0100725
0.0117645
-0.00945141
0.0125941
-0.00903991
0.0134057
-0.00854869
0.0141991
-0.0081418
0.0149786
-0.00778187
0.0157371
-0.00741428
0.0164684
-0.00708944
0.0171791
-0.00678143
0.0178671
-0.00647181
0.0185246
-0.0062028
0.0191536
-0.00594947
0.0197565
-0.0056828
0.0203323
-0.0054168
0.0208777
-0.00518831
0.0213931
-0.00497519
0.0218813
-0.00472908
0.0223421
-0.00448038
0.0227756
-0.00422796
0.0231798
-0.00403932
0.0235574
-0.00379461
0.0239087
-0.00354129
0.0242337
-0.00328313
0.0245325
-0.00301958
0.0248047
-0.00280784
0.0250511
-0.00254113
0.0252718
-0.00226836
0.0254666
-0.00199102
0.0256356
-0.00170905
0.0257791
-0.00143718
0.0258973
-0.00112027
0.0259896
-0.000821767
0.0260559
-0.000560557
0.0260957
-0.000335045
-0.000143186
0.0261091
0.00666611
-0.0152504
-0.00576601
0.00756496
-0.0142594
0.00846371
-0.013207
0.009355
-0.0122455
0.0102395
-0.0115577
0.0111162
-0.0109491
0.0119772
-0.0103124
0.0128307
-0.00989346
0.0136665
-0.00938445
0.0144842
-0.00895955
0.0152878
-0.00858546
0.0160708
-0.00819729
0.0168275
-0.00784609
0.0175637
-0.0075176
0.0182775
-0.00718566
0.0189614
-0.00688672
0.0196172
-0.00660527
0.0202469
-0.00631249
0.0208495
-0.00601939
0.0214214
-0.00576024
0.0219629
-0.00551668
0.0224765
-0.0052427
0.022962
-0.00496589
0.0234193
-0.00468525
0.023846
-0.00446604
0.024245
-0.00419358
0.0246164
-0.00391269
0.0249603
-0.00362697
0.0252766
-0.00333589
0.0255647
-0.00309596
0.0258257
-0.00280211
0.0260595
-0.00250219
0.0262661
-0.00219766
0.0264456
-0.00188847
0.026598
-0.00158959
0.0267236
-0.00124595
0.0268222
-0.000920319
0.0268933
-0.000631637
0.0269366
-0.000378413
-0.000158694
0.0269522
0.00673316
-0.0161809
-0.00580265
0.00766173
-0.0151879
0.00858925
-0.0141345
0.00950883
-0.0131651
0.0104209
-0.0124698
0.0113245
-0.0118526
0.0122122
-0.0112001
0.0130916
-0.0107729
0.0139532
-0.0102461
0.0147968
-0.00980311
0.0156258
-0.00941446
0.0164343
-0.00900584
0.017217
-0.00862876
0.0179792
-0.00827979
0.0187191
-0.0079256
0.0194295
-0.00759714
0.020112
-0.00728773
0.0207683
-0.00696876
0.0213973
-0.00664841
0.0219954
-0.00635839
0.0225627
-0.00608394
0.0231015
-0.00578146
0.0236114
-0.00547581
0.0240922
-0.00516608
0.0245413
-0.00491517
0.0249616
-0.00461386
0.0253531
-0.00430421
0.0257159
-0.00398968
0.0260497
-0.00366977
0.0263539
-0.00340014
0.0266296
-0.0030778
0.0268768
-0.00274934
0.0270953
-0.00241623
0.0272853
-0.00207843
0.0274467
-0.00175105
0.0275801
-0.00137927
0.0276849
-0.00102512
0.0277608
-0.000707596
0.0278077
-0.00042529
-0.000176346
0.0278254
0.00680978
-0.0171437
-0.00584695
0.00777
-0.0161482
0.00872828
-0.0150928
0.00967813
-0.014115
0.0106198
-0.0134115
0.0115521
-0.012785
0.0124685
-0.0121165
0.0133756
-0.01168
0.0142647
-0.0111352
0.0151356
-0.010674
0.0159914
-0.0102703
0.0168267
-0.0098411
0.0176363
-0.00943841
0.0184253
-0.00906873
0.0191918
-0.00869217
0.0199291
-0.00833443
0.0206384
-0.00799704
0.0213214
-0.00765168
0.0219768
-0.00730382
0.022601
-0.00698265
0.023194
-0.00667686
0.0237578
-0.00634525
0.024292
-0.00601001
0.0247962
-0.00567035
0.0252678
-0.0053867
0.0257093
-0.00505543
0.026121
-0.00471587
0.0265026
-0.00437131
0.0268541
-0.00402129
0.0271745
-0.00372051
0.027465
-0.00336829
0.0277256
-0.00300993
0.0279562
-0.00264685
0.0281568
-0.00227903
0.0283274
-0.00192165
0.0284684
-0.00152028
0.0285795
-0.00113622
0.0286604
-0.000788443
0.0287107
-0.000475652
-0.000196083
0.0287305
0.00689547
-0.0181408
-0.00589842
0.00788924
-0.0171419
0.00888021
-0.0160838
0.00986223
-0.015097
0.0108354
-0.0143846
0.0117984
-0.013748
0.0127452
-0.0130633
0.0136818
-0.0126166
0.0146002
-0.0120536
0.0155
-0.0115738
0.0163841
-0.0111543
0.0172474
-0.0107044
0.0180851
-0.0102761
0.0189017
-0.00988536
0.0196957
-0.00948612
0.0204604
-0.00909915
0.021197
-0.00873364
0.0219069
-0.00836156
0.0225889
-0.00798582
0.0232394
-0.00763316
0.023858
-0.00729553
0.0244469
-0.00693411
0.0250054
-0.00656851
0.0255331
-0.00619805
0.0260271
-0.00588067
0.02649
-0.00551836
0.0269219
-0.00514773
0.0273225
-0.00477192
0.0276917
-0.00439053
0.0280284
-0.00405717
0.0283338
-0.00367373
0.028608
-0.00328407
0.0288507
-0.00288961
0.029062
-0.00249033
0.0292418
-0.00210147
0.0293906
-0.00166903
0.029508
-0.00125363
0.0295937
-0.000874162
0.0296475
-0.000529448
-0.000217822
0.0296693
0.00698984
-0.0191739
-0.00595671
0.00801903
-0.0181711
0.00904459
-0.0171093
0.0100607
-0.0161131
0.0110672
-0.0153911
0.0120628
-0.0147437
0.0130419
-0.0140424
0.0140098
-0.0135845
0.0149592
-0.0130029
0.0158895
-0.0125041
0.0168033
-0.0120682
0.017696
-0.011597
0.018563
-0.0111431
0.0194084
-0.0107308
0.0202306
-0.0103084
0.0210236
-0.00989208
0.0217881
-0.00949816
0.0225254
-0.0090989
0.0232344
-0.00869479
0.0239114
-0.00831022
0.0245561
-0.0079402
0.0251702
-0.00754824
0.0257532
-0.00715146
0.0263045
-0.00674932
0.026821
-0.00639722
0.0273054
-0.00600278
0.0277576
-0.00559992
0.0281773
-0.00519165
0.0285644
-0.0047776
0.0289175
-0.00441027
0.029238
-0.00399423
0.0295258
-0.00357187
0.0297808
-0.00314459
0.0300029
-0.00271242
0.030192
-0.00229057
0.0303485
-0.00182557
0.0304722
-0.00137735
0.0305628
-0.000964719
0.03062
-0.000586612
-0.00024146
0.0306436
0.00709261
-0.020245
-0.00602153
0.00815909
-0.0192376
0.00922115
-0.0181714
0.0102732
-0.0171651
0.0113149
-0.0164328
0.012345
-0.0157738
0.0133582
-0.0150555
0.0143592
-0.0145856
0.0153412
-0.0139849
0.0163037
-0.0134666
0.0172489
-0.0130134
0.0181724
-0.0125205
0.0190699
-0.0120407
0.0199453
-0.0116061
0.0207969
-0.01116
0.021619
-0.0107141
0.0224122
-0.0102914
0.0231776
-0.00986435
0.0239141
-0.0094313
0.0246182
-0.00901429
0.0252893
-0.00861127
0.025929
-0.00818796
0.0265367
-0.00775915
0.0271117
-0.00732438
0.0276511
-0.00693659
0.0281572
-0.0065089
0.0286299
-0.00607263
0.0290689
-0.00563065
0.029474
-0.00518265
0.0298437
-0.00477998
0.0301794
-0.00432993
0.030481
-0.00387345
0.0307483
-0.00341192
0.0309813
-0.00294538
0.0311797
-0.002489
0.0313441
-0.00198992
0.0314741
-0.00150737
0.0315694
-0.00106007
0.0316299
-0.000647065
-0.000266881
0.0316553
0.00720358
-0.0213559
-0.00609268
0.00830924
-0.0203432
0.00940969
-0.0192718
0.0104996
-0.018255
0.0115784
-0.0175116
0.0126449
-0.0168403
0.0136939
-0.0161045
0.0147299
-0.0156215
0.0157462
-0.0150012
0.0167425
-0.0144628
0.0177206
-0.0139915
0.0186764
-0.0134764
0.019606
-0.0129702
0.0205125
-0.0125127
0.0213947
-0.0120422
0.0222469
-0.0115663
0.0230698
-0.0111142
0.0238642
-0.0106587
0.0246289
-0.010196
0.0253606
-0.009746
0.0260586
-0.00930926
0.0267244
-0.00885374
0.0273572
-0.00839197
0.0279564
-0.0079236
0.0285189
-0.00749911
0.029047
-0.00703701
0.0295405
-0.00656612
0.029999
-0.00608917
0.0304223
-0.00560591
0.0308088
-0.00516649
0.0311599
-0.00468102
0.0314754
-0.00418897
0.0317552
-0.0036917
0.0319991
-0.00318929
0.0322069
-0.00269684
0.0323791
-0.00216212
0.0325155
-0.0016437
0.0326156
-0.00116018
0.0326792
-0.000710721
-0.000293961
0.0327063
0.00732264
-0.0225086
-0.00616999
0.00846939
-0.02149
0.00961014
-0.0204126
0.0107397
-0.0193846
0.0118576
-0.0186294
0.0129623
-0.017945
0.014049
-0.0171913
0.0151217
-0.0166942
0.0161742
-0.0160538
0.0172059
-0.0154945
0.0182187
-0.0150042
0.0192084
-0.0144661
0.0201713
-0.0139331
0.0211105
-0.0134519
0.0220245
-0.0129562
0.022908
-0.0124498
0.0237614
-0.0119677
0.0245857
-0.011483
0.0253795
-0.0109898
0.0261395
-0.0105061
0.0268651
-0.0100348
0.0275575
-0.00954615
0.028216
-0.00905043
0.0288398
-0.00854741
0.0294259
-0.00808518
0.0299764
-0.00758749
0.030491
-0.00708073
0.0309693
-0.0065675
0.031411
-0.00604763
0.0318146
-0.00557004
0.0321813
-0.00504771
0.0325109
-0.0045186
0.0328033
-0.00398408
0.0330583
-0.00344427
0.0332756
-0.00291415
0.0334556
-0.0023422
0.0335983
-0.00178632
0.0337031
-0.001265
0.0337699
-0.000777493
-0.000322567
0.0337985
0.00744971
-0.0237049
-0.00625337
0.00863949
-0.0226798
0.0098225
-0.0215956
0.0109938
-0.0205559
0.0121525
-0.0197882
0.0132973
-0.0190899
0.0144237
-0.0183176
0.0155349
-0.0178054
0.0166253
-0.0171442
0.0176943
-0.0165634
0.0187432
-0.0160532
0.0197685
-0.0154913
0.0207663
-0.014931
0.0217395
-0.014425
0.0226866
-0.0139033
0.0236026
-0.0133659
0.0244879
-0.012853
0.025343
-0.0123381
0.0261668
-0.0118136
0.0269561
-0.0112953
0.02771
-0.0107887
0.0284297
-0.0102659
0.0291144
-0.00973516
0.0297634
-0.00919638
0.0303735
-0.00869531
0.0309468
-0.00816079
0.031483
-0.00761685
0.0319815
-0.007066
0.0324419
-0.00650812
0.0328628
-0.00599094
0.0332454
-0.00543025
0.0335893
-0.00486255
0.0338945
-0.00428922
0.0341606
-0.00371043
0.0343875
-0.00314103
0.0345755
-0.00253021
0.0347244
-0.00193524
0.0348339
-0.00137448
0.0349037
-0.00084729
-0.000352567
0.0349337
0.00758478
-0.0249469
-0.00634276
0.00881958
-0.0239146
0.0100468
-0.0228228
0.0112617
-0.0217708
0.0124633
-0.0209898
0.0136502
-0.0202768
0.014818
-0.0194854
0.0159697
-0.0189571
0.0170999
-0.0182744
0.0182078
-0.0176713
0.0192947
-0.0171401
0.0203571
-0.0165537
0.0213914
-0.0159653
0.0224001
-0.0154337
0.0233817
-0.0148849
0.0243315
-0.0143157
0.0252498
-0.0137712
0.0261369
-0.0132253
0.0269918
-0.0126685
0.0278112
-0.0121147
0.0285943
-0.0115719
0.0293421
-0.0110137
0.0300538
-0.0104468
0.0307286
-0.00987113
0.0313633
-0.00933009
0.03196
-0.00875743
0.0325181
-0.00817496
0.0330372
-0.00758509
0.0335168
-0.00698776
0.0339554
-0.00642951
0.0343541
-0.00582891
0.0347126
-0.00522106
0.0350307
-0.00460733
0.0353082
-0.00398792
0.0355447
-0.00337758
0.0357407
-0.00272622
0.035896
-0.00209048
0.0360101
-0.00148858
0.0360828
-0.00092003
-0.000383828
0.0361141
0.00772789
-0.0262367
-0.00643814
0.00900973
-0.0251964
0.0102832
-0.0240963
0.0115438
-0.0230313
0.0127903
-0.0222363
0.0140212
-0.0215077
0.0152324
-0.0206965
0.0164264
-0.0201512
0.0175982
-0.0194461
0.0187469
-0.01882
0.0198735
-0.0182668
0.0209747
-0.0176549
0.0220471
-0.0170377
0.0230928
-0.0164794
0.0241105
-0.0159026
0.0250955
-0.0153007
0.0260481
-0.0147237
0.0269684
-0.0141456
0.0278554
-0.0135555
0.028706
-0.0129653
0.0295193
-0.0123851
0.0302961
-0.0117905
0.0310355
-0.0111863
0.0317368
-0.0105724
0.0323969
-0.00999016
0.0330174
-0.009378
0.0335981
-0.00875559
0.0341382
-0.00812525
0.0346374
-0.00748697
0.035094
-0.00688613
0.0355092
-0.00624404
0.0358825
-0.0055944
0.0362138
-0.00493862
0.0365028
-0.00427692
0.0367492
-0.00362394
0.0369532
-0.0029303
0.0371148
-0.00225205
0.0372335
-0.00160729
0.0373091
-0.000995632
-0.000416218
0.0373415
0.00787909
-0.0275762
-0.00653952
0.00921008
-0.0265274
0.010532
-0.0254182
0.0118402
-0.0243396
0.0131336
-0.0235296
0.0144106
-0.0227847
0.0156671
-0.0219531
0.0169054
-0.0213895
0.0181207
-0.0206614
0.019312
-0.0200113
0.0204802
-0.019435
0.0216221
-0.0187967
0.0227342
-0.0181498
0.0238186
-0.0175638
0.0248738
-0.0169578
0.0258955
-0.0163224
0.0268837
-0.0157119
0.0278385
-0.0151005
0.0287589
-0.0144758
0.0296417
-0.0138482
0.0304862
-0.0132295
0.0312929
-0.0125973
0.032061
-0.0119544
0.0327896
-0.011301
0.0334757
-0.0106763
0.0341208
-0.0100232
0.0347246
-0.00935935
0.0352863
-0.008687
0.0358056
-0.00800622
0.0362807
-0.00736123
0.0367126
-0.00667599
0.0371011
-0.0059829
0.0374459
-0.00528335
0.0377466
-0.00457764
0.0380029
-0.00388025
0.0382151
-0.00314255
0.0383831
-0.00242001
0.0385064
-0.00173059
0.0385848
-0.00107402
-0.000449609
0.0386182
0.0080385
-0.0289678
-0.00664694
0.00942078
-0.0279097
0.0107932
-0.0267906
0.0121512
-0.0256976
0.0134936
-0.024872
0.0148187
-0.0241098
0.0161226
-0.023257
0.0174073
-0.0226742
0.0186681
-0.0219222
0.0199039
-0.0212472
0.0211156
-0.0206466
0.0222998
-0.0199809
0.0234534
-0.0193035
0.0245781
-0.0186885
0.0256725
-0.0180522
0.0267324
-0.0173823
0.0277576
-0.0167371
0.0287483
-0.0160912
0.0297033
-0.0154308
0.0306197
-0.0147645
0.0314964
-0.0141063
0.0323341
-0.0134349
0.0331317
-0.012752
0.0338884
-0.0120577
0.0346014
-0.0113892
0.0352719
-0.0106937
0.0358994
-0.00998688
0.0364834
-0.00927096
0.0370232
-0.00854604
0.0375172
-0.00785526
0.0379664
-0.00712518
0.0383704
-0.00638689
0.0387289
-0.00564181
0.0390415
-0.00489029
0.0393079
-0.00414668
0.0395285
-0.00336308
0.0397029
-0.00259439
0.0398307
-0.00185846
0.0399118
-0.00115513
-0.000483871
0.0399461
0.00820625
-0.0304136
-0.00676048
0.00964205
-0.0293455
0.0110671
-0.0282157
0.0124772
-0.0271077
0.0138707
-0.0262656
0.0152461
-0.0254852
0.0165995
-0.0246104
0.0179326
-0.0240073
0.0192409
-0.0232305
0.0205232
-0.0225295
0.0217802
-0.0219036
0.0230087
-0.0212094
0.0242056
-0.0205004
0.0253724
-0.0198553
0.0265076
-0.0191874
0.0276072
-0.0184819
0.0286711
-0.0178009
0.0296991
-0.0171193
0.03069
-0.0164218
0.0316411
-0.0157156
0.0325513
-0.0150164
0.033421
-0.0143047
0.0342493
-0.0135803
0.0350351
-0.0128435
0.0357757
-0.0121298
0.0364723
-0.0113903
0.0371244
-0.0106389
0.0377312
-0.00987776
0.0382921
-0.00910702
0.0388056
-0.00836877
0.0392725
-0.00759206
0.0396924
-0.00680676
0.0400649
-0.00601432
0.0403897
-0.00521513
0.0406665
-0.00442344
0.0408954
-0.00359203
0.0410763
-0.00277528
0.0412088
-0.00199091
0.0412926
-0.00123891
-0.000518883
0.0413276
0.00838252
-0.0319159
-0.00688021
0.00987412
-0.0308371
0.0113542
-0.0296957
0.0128185
-0.028572
0.0142655
-0.0277125
0.0156933
-0.026913
0.0170984
-0.0260155
0.0184819
-0.0253909
0.0198398
-0.0245883
0.0211707
-0.0238604
0.022475
-0.0232079
0.0237497
-0.0224841
0.0249917
-0.0217425
0.0262024
-0.021066
0.0273802
-0.0203652
0.0285212
-0.019623
0.0296252
-0.0189049
0.030692
-0.0181861
0.0317204
-0.0174501
0.0327075
-0.0167028
0.0336524
-0.0159613
0.0345553
-0.0152076
0.0354153
-0.0144402
0.0362312
-0.0136595
0.0370005
-0.012899
0.0377241
-0.0121139
0.0384014
-0.0113162
0.0390317
-0.0105081
0.0396145
-0.00968978
0.040148
-0.00890229
0.0406331
-0.00807711
0.0410692
-0.00724294
0.0414561
-0.00640123
0.0417935
-0.00555246
0.0420808
-0.00471073
0.0423183
-0.00382953
0.0425057
-0.00296275
0.0426428
-0.00212795
0.0427292
-0.00132528
-0.000554519
0.0427648
0.0085675
-0.0334771
-0.00700628
0.0101173
-0.0323869
0.0116547
-0.0312332
0.0131756
-0.0300929
0.0146782
-0.0292151
0.0161608
-0.0283956
0.0176197
-0.0274744
0.019056
-0.0268271
0.0204656
-0.0259979
0.0218471
-0.025242
0.0232008
-0.0245616
0.0245237
-0.023807
0.0258128
-0.0230316
0.0270692
-0.0223224
0.0282914
-0.0215874
0.0294756
-0.0208072
0.0306214
-0.0200506
0.0317286
-0.0192933
0.0327958
-0.0185174
0.0338205
-0.0177274
0.0348013
-0.0169422
0.0357387
-0.016145
0.0366315
-0.015333
0.0374787
-0.0145067
0.0382775
-0.0136979
0.039029
-0.0128653
0.0397324
-0.0120196
0.040387
-0.0111628
0.0409923
-0.010295
0.0415464
-0.00945645
0.0420502
-0.00858088
0.0425031
-0.00769588
0.0429048
-0.00680294
0.0432549
-0.00590258
0.043553
-0.00500879
0.0437992
-0.00407578
0.0439934
-0.00315689
0.0441351
-0.00226962
0.044224
-0.00141422
-0.000590661
0.0442601
0.00876142
-0.0350997
-0.00713881
0.0103718
-0.0339973
0.011969
-0.0328303
0.0135489
-0.0316728
0.0151096
-0.0307759
0.0166493
-0.0299352
0.0181644
-0.0289895
0.0196557
-0.0283184
0.0211192
-0.0274613
0.0225535
-0.0266763
0.0239587
-0.0259667
0.0253318
-0.0251801
0.0266701
-0.0243699
0.0279741
-0.0236264
0.0292425
-0.0228558
0.0304717
-0.0220363
0.031661
-0.02124
0.0328101
-0.0204425
0.0339179
-0.0196251
0.0349815
-0.018791
0.0359998
-0.0179605
0.0369729
-0.0171181
0.0378997
-0.0162598
0.0387792
-0.0153862
0.0396087
-0.0145274
0.040389
-0.0136456
0.0411195
-0.0127501
0.0417992
-0.0118425
0.0424276
-0.0109234
0.0430031
-0.0100319
0.0435261
-0.00910393
0.0439963
-0.00816608
0.0444132
-0.00721985
0.0447765
-0.00626583
0.0450856
-0.0053179
0.0453408
-0.00433095
0.0455417
-0.00335783
0.045688
-0.00241594