/*--------------------------------*- C++ -*----------------------------------*\
| =========                 |                                                 |
| \\      /  F ield         | OpenFOAM: The Open Source CFD Toolbox           |
|  \\    /   O peration     | Version:  3.0.1                                 |
|   \\  /    A nd           | Web:      www.OpenFOAM.org                      |
|    \\/     M anipulation  |                                                 |
\*---------------------------------------------------------------------------*/
FoamFile
{
    version     2.0;
    format      ascii;
    class       volVectorField;
    location    "500";
    object      U;
}
// * * * * * * * * * * * * * * * * * * * * * * * * * * * * * * * * * * * * * //

dimensions      [0 1 -1 0 0 0 0];

internalField   nonuniform List<vector> 
58000
(
(0.306696 1.16201 1.86419e-21)
(0.450896 1.28927 -1.68601e-20)
(0.600108 1.3313 1.93212e-20)
(0.727826 1.29109 -2.96823e-20)
(0.828601 1.20698 -5.92746e-20)
(0.907743 1.10361 0)
(0.970202 0.999752 -3.36374e-20)
(1.01752 0.898796 -6.04319e-22)
(1.05589 0.805735 3.81904e-20)
(1.08677 0.726079 0)
(1.11174 0.656885 4.1279e-20)
(1.13305 0.597242 3.90927e-20)
(1.15255 0.549155 -1.24903e-19)
(1.16684 0.509269 4.35996e-20)
(1.1773 0.475096 3.89135e-20)
(1.18544 0.446358 7.81173e-20)
(1.19127 0.422221 -1.14618e-19)
(1.19542 0.401052 0)
(1.19836 0.381554 7.24575e-20)
(1.2004 0.363336 -1.07455e-19)
(1.20158 0.346665 8.73158e-22)
(1.20185 0.33112 3.49489e-20)
(1.20166 0.316185 1.65495e-20)
(1.20055 0.301309 0)
(1.19924 0.287084 3.13222e-20)
(1.19702 0.273676 -1.54686e-20)
(1.19443 0.260734 0)
(1.19156 0.248081 3.05155e-22)
(1.18798 0.235449 0)
(1.18433 0.223348 -1.43235e-20)
(1.18009 0.211906 6.99438e-20)
(1.17566 0.200804 -6.94425e-20)
(1.17106 0.189914 -4.08188e-20)
(1.16608 0.179102 1.07086e-19)
(1.16083 0.168493 -2.65734e-20)
(1.15317 0.157991 -1.30651e-20)
(1.14203 0.147961 1.94413e-20)
(1.13061 0.139173 -1.24883e-20)
(1.12056 0.131683 1.86316e-20)
(1.11959 0.12678 0)
(0.549397 0.761911 -7.55025e-21)
(0.662494 0.838182 0)
(0.777741 0.895365 3.05142e-23)
(0.889856 0.947665 -3.09332e-23)
(0.994311 0.980266 3.59974e-20)
(1.08873 0.989207 2.91118e-20)
(1.16889 0.978193 -5.55228e-20)
(1.23632 0.951112 1.59055e-20)
(1.29107 0.911307 7.55909e-20)
(1.3321 0.865269 -4.12294e-20)
(1.3624 0.814753 0)
(1.38305 0.762092 -7.48926e-20)
(1.39471 0.712296 4.99554e-20)
(1.40094 0.666107 2.68558e-20)
(1.40326 0.621879 -2.68312e-20)
(1.40289 0.58155 0)
(1.40086 0.545889 2.64357e-20)
(1.39775 0.513232 0)
(1.39389 0.482591 1.004e-19)
(1.38966 0.454405 -1.50236e-19)
(1.38537 0.429134 0)
(1.38092 0.405767 1.21326e-19)
(1.3763 0.383475 -9.63439e-20)
(1.3714 0.36199 0)
(1.36656 0.342145 -3.46707e-20)
(1.36169 0.323886 0)
(1.35663 0.306319 0)
(1.35139 0.289267 3.31754e-20)
(1.34582 0.272624 0)
(1.34026 0.257019 -3.22349e-20)
(1.33468 0.24244 4.26565e-20)
(1.32892 0.228266 -4.15918e-20)
(1.32293 0.214374 3.09836e-20)
(1.31666 0.200707 -2.04665e-20)
(1.31014 0.187495 0)
(1.30331 0.174917 -2.99421e-20)
(1.29629 0.163467 1.97439e-20)
(1.28937 0.153453 0)
(1.28305 0.144362 -4.85927e-21)
(1.2782 0.136567 9.51338e-21)
(0.569766 0.692145 2.10258e-21)
(0.623188 0.754574 -7.26025e-22)
(0.689378 0.807047 8.20165e-22)
(0.764325 0.84736 9.89505e-22)
(0.843 0.875148 -1.03312e-21)
(0.924035 0.891332 -1.6016e-20)
(1.00094 0.89554 2.02689e-20)
(1.07427 0.888187 0)
(1.14107 0.870565 -2.75989e-20)
(1.19784 0.844618 2.52766e-20)
(1.24687 0.811655 3.13206e-20)
(1.28764 0.773903 -1.73609e-21)
(1.31871 0.734773 0)
(1.34264 0.695165 6.98323e-20)
(1.36113 0.655239 -3.64853e-20)
(1.37426 0.617412 0)
(1.38302 0.582657 0)
(1.38877 0.550006 0)
(1.39229 0.519026 -1.81203e-20)
(1.39398 0.490328 1.92453e-20)
(1.39428 0.464251 0)
(1.39357 0.439921 1.78861e-20)
(1.3921 0.416724 0)
(1.38998 0.394519 0)
(1.38737 0.373978 3.57416e-20)
(1.38436 0.354884 -7.03443e-20)
(1.38096 0.336484 7.03574e-20)
(1.37721 0.318709 1.68192e-20)
(1.37312 0.301496 -3.44134e-20)
(1.36883 0.285338 -2.517e-20)
(1.36435 0.270107 0)
(1.3596 0.255289 1.61805e-20)
(1.35459 0.240856 0)
(1.34931 0.226798 3.03962e-22)
(1.34381 0.21333 -2.37639e-20)
(1.33803 0.200499 1.59724e-20)
(1.33192 0.188275 0)
(1.32576 0.176755 0)
(1.3198 0.165727 -3.81862e-21)
(1.31448 0.15483 -4.01714e-21)
(0.645951 0.620949 3.37024e-21)
(0.682775 0.666978 7.93761e-22)
(0.725232 0.710164 -1.34613e-21)
(0.774148 0.747714 -5.02726e-24)
(0.828415 0.776989 3.33151e-21)
(0.887244 0.797545 0)
(0.9468 0.808514 -8.35462e-21)
(1.00629 0.810689 0)
(1.0641 0.804562 -1.61385e-20)
(1.11682 0.791062 -3.30125e-21)
(1.16531 0.7711 -2.07292e-20)
(1.20873 0.745848 1.97966e-20)
(1.24491 0.717575 -2.52675e-20)
(1.27502 0.687105 -5.13669e-20)
(1.3004 0.654764 -2.71366e-20)
(1.32042 0.622536 2.7923e-20)
(1.3356 0.591536 -2.63756e-20)
(1.3473 0.561392 0)
(1.35628 0.532033 -1.25192e-20)
(1.36279 0.504226 -5.68064e-20)
(1.3672 0.478465 5.6982e-20)
(1.37008 0.454122 -1.46508e-20)
(1.3718 0.430726 0)
(1.37253 0.408205 0)
(1.37237 0.387228 4.14771e-20)
(1.3715 0.367629 -5.58294e-20)
(1.37004 0.348721 5.50056e-20)
(1.36805 0.330432 -5.1932e-22)
(1.36557 0.312703 -1.08668e-19)
(1.36272 0.296005 6.79774e-20)
(1.35954 0.280239 -2.65108e-20)
(1.35601 0.26492 -1.32519e-20)
(1.35214 0.250017 5.24454e-20)
(1.34794 0.235512 -1.94683e-20)
(1.34348 0.221615 6.58612e-21)
(1.33881 0.208376 -6.25816e-21)
(1.3339 0.195638 -6.20926e-21)
(1.32883 0.183386 0)
(1.32372 0.171564 3.08338e-21)
(1.31885 0.160163 -3.2103e-21)
(0.688186 0.576031 -1.5109e-21)
(0.71473 0.612378 -2.17126e-21)
(0.745267 0.648103 1.71428e-23)
(0.780785 0.68141 -2.30504e-22)
(0.82135 0.709904 -1.12647e-21)
(0.866897 0.73264 0)
(0.914869 0.747888 3.47423e-21)
(0.964564 0.755859 3.2825e-21)
(1.0146 0.756716 0)
(1.06205 0.75065 1.03338e-20)
(1.10741 0.738463 1.21158e-20)
(1.14972 0.72101 0)
(1.18667 0.699762 -1.79915e-20)
(1.21891 0.67551 1.91968e-20)
(1.24741 0.648724 0)
(1.27116 0.621022 -3.80709e-20)
(1.29024 0.593457 1.04028e-19)
(1.30586 0.565952 5.61033e-22)
(1.31866 0.53861 -2.04195e-20)
(1.3287 0.512236 0)
(1.33624 0.487392 0)
(1.34192 0.463638 0)
(1.34618 0.44063 2.16303e-20)
(1.34921 0.418367 0)
(1.35105 0.397502 0)
(1.35191 0.377899 0)
(1.35203 0.358942 3.33428e-20)
(1.35149 0.340579 -4.43297e-20)
(1.35034 0.322772 5.43397e-20)
(1.34867 0.305967 -3.31662e-20)
(1.34654 0.29006 0)
(1.34398 0.274598 0)
(1.34103 0.259561 -1.0811e-20)
(1.33771 0.244938 3.20278e-20)
(1.33408 0.230925 -2.31362e-22)
(1.33021 0.217554 -2.60825e-20)
(1.32609 0.204621 1.57461e-20)
(1.32173 0.192068 0)
(1.31719 0.179893 0)
(1.31255 0.168137 -5.17161e-21)
(0.725393 0.540577 0)
(0.746002 0.56978 1.5629e-21)
(0.769001 0.599162 1.63118e-21)
(0.795547 0.627707 4.35139e-23)
(0.826265 0.653661 -1.296e-21)
(0.861612 0.67622 2.4209e-21)
(0.900125 0.693412 1.92674e-21)
(0.941262 0.705073 7.2751e-21)
(0.984042 0.710883 1.22435e-21)
(1.02598 0.710475 -1.54726e-20)
(1.06725 0.704476 -4.68023e-22)
(1.10695 0.693399 -3.16686e-20)
(1.14284 0.678129 4.68254e-20)
(1.17518 0.659402 -2.48516e-20)
(1.20468 0.637724 2.84457e-20)
(1.23017 0.614368 -2.72427e-20)
(1.25145 0.590297 0)
(1.26952 0.56563 0)
(1.28489 0.540576 0)
(1.29745 0.515924 0)
(1.30734 0.492285 -1.80895e-20)
(1.31521 0.469386 -1.70673e-20)
(1.3215 0.446997 5.25829e-20)
(1.32638 0.425169 -3.56379e-20)
(1.32988 0.404548 0)
(1.3322 0.385048 1.73967e-20)
(1.33365 0.366131 -2.65347e-20)
(1.33432 0.34776 3.59726e-20)
(1.33428 0.329914 -6.21491e-20)
(1.33359 0.313017 1.79356e-20)
(1.33234 0.296981 -3.52519e-20)
(1.3306 0.281386 3.54322e-20)
(1.32841 0.266214 -4.18557e-22)
(1.32579 0.251452 8.94152e-21)
(1.32281 0.237284 0)
(1.31954 0.223739 0)
(1.316 0.21061 -8.53995e-21)
(1.31217 0.197832 8.58445e-21)
(1.30808 0.18543 0)
(1.30379 0.173479 -4.10638e-21)
(0.754217 0.512362 8.17346e-22)
(0.771173 0.536478 -9.71111e-22)
(0.789687 0.56098 -2.35418e-22)
(0.810691 0.585273 1.5195e-22)
(0.834897 0.608143 -9.27136e-22)
(0.862961 0.629095 -2.42137e-21)
(0.894145 0.646344 -2.45686e-21)
(0.928184 0.659617 -9.1799e-22)
(0.964499 0.668367 0)
(1.00109 0.671834 0)
(1.03803 0.670447 5.72139e-21)
(1.0745 0.664418 0)
(1.10843 0.654129 0)
(1.13984 0.640203 -1.95535e-20)
(1.16923 0.623134 1.02632e-20)
(1.19535 0.603871 -2.14932e-20)
(1.2178 0.583252 1.19956e-20)
(1.23739 0.561525 0)
(1.2545 0.538957 1.23933e-20)
(1.26889 0.51629 1.41916e-20)
(1.28059 0.494148 -2.84581e-20)
(1.29021 0.472398 4.27121e-20)
(1.29816 0.450907 1.68883e-22)
(1.30461 0.429772 -2.87239e-20)
(1.30952 0.409629 1.50075e-20)
(1.31311 0.390441 -2.92552e-20)
(1.31572 0.37175 -2.93643e-20)
(1.31746 0.353536 -1.43169e-20)
(1.3184 0.335796 1.51142e-20)
(1.31858 0.318941 -3.61132e-20)
(1.3181 0.302898 5.85837e-20)
(1.31708 0.287278 -2.28589e-22)
(1.31555 0.272067 -5.84618e-20)
(1.31354 0.257257 7.50066e-21)
(1.31112 0.243021 0)
(1.30836 0.229388 2.13884e-20)
(1.30528 0.216156 -7.4136e-21)
(1.30187 0.203262 0)
(1.29815 0.190739 3.52507e-21)
(1.29414 0.17867 3.83419e-21)
(0.778035 0.488956 -8.85394e-22)
(0.792454 0.509273 2.62664e-22)
(0.807942 0.530006 1.96251e-22)
(0.82524 0.550778 3.80368e-24)
(0.844995 0.570726 1.54414e-22)
(0.867864 0.589589 2.05446e-21)
(0.893511 0.605888 -1.17903e-21)
(0.921862 0.619389 2.34444e-21)
(0.952653 0.629508 -2.4467e-21)
(0.984362 0.635317 0)
(1.01703 0.637088 3.26661e-21)
(1.05001 0.634814 -1.14119e-20)
(1.08145 0.628489 5.98132e-21)
(1.11123 0.618596 -2.12651e-20)
(1.1397 0.60557 2.4913e-20)
(1.16562 0.590053 -2.50188e-20)
(1.18846 0.57274 2.76608e-20)
(1.20884 0.553948 0)
(1.22703 0.533966 -1.07789e-20)
(1.2427 0.513458 1.11948e-20)
(1.25576 0.493029 -1.15265e-20)
(1.26675 0.47266 2.27367e-20)
(1.27606 0.452299 -4.62188e-20)
(1.28383 0.432082 2.33648e-20)
(1.28996 0.41262 1.23504e-20)
(1.29468 0.393926 1.2411e-20)
(1.29833 0.375622 -2.42062e-20)
(1.30104 0.357709 4.88098e-20)
(1.30287 0.340203 0)
(1.30385 0.323498 3.70664e-20)
(1.30409 0.307541 -3.64356e-20)
(1.30373 0.291978 2.43893e-20)
(1.3028 0.276802 -1.82779e-20)
(1.30136 0.262007 6.25877e-21)
(1.29945 0.24776 5.94444e-21)
(1.29714 0.234092 -2.94169e-22)
(1.29447 0.220811 -6.20172e-21)
(1.29144 0.207861 0)
(1.28805 0.19528 -2.97916e-21)
(1.28433 0.18315 3.12956e-21)
(0.797871 0.469049 0)
(0.810467 0.48646 0)
(0.823835 0.504252 -1.7626e-21)
(0.838559 0.52217 5.67091e-22)
(0.855196 0.539572 1.31501e-22)
(0.874332 0.556346 -1.82565e-21)
(0.895836 0.571296 2.67238e-21)
(0.919745 0.584263 0)
(0.945998 0.594724 0)
(0.97346 0.601735 -5.81598e-21)
(1.0022 0.605474 -8.39014e-21)
(1.03171 0.605803 -2.82244e-23)
(1.06045 0.602453 1.50324e-20)
(1.0882 0.595773 -3.17217e-21)
(1.11523 0.586121 -9.85665e-21)
(1.14036 0.57388 0)
(1.16298 0.559588 0)
(1.18356 0.543584 0)
(1.20226 0.526148 0)
(1.21871 0.507851 -1.73752e-20)
(1.23271 0.489254 1.75917e-20)
(1.24472 0.470423 2.73782e-20)
(1.25511 0.45137 -3.78047e-20)
(1.26395 0.432253 9.85919e-21)
(1.27112 0.41365 0)
(1.27681 0.395623 -1.99525e-20)
(1.28139 0.377864 2.01205e-20)
(1.28496 0.360399 -1.05077e-20)
(1.28761 0.343258 0)
(1.28933 0.326823 -1.05409e-20)
(1.29024 0.311059 1.06754e-20)
(1.2905 0.295651 4.1275e-20)
(1.29015 0.280596 -4.13475e-20)
(1.28923 0.265896 2.07222e-20)
(1.2878 0.251713 -5.29748e-21)
(1.28593 0.238079 -2.56025e-20)
(1.28365 0.224817 1.03318e-20)
(1.28097 0.211876 5.10246e-21)
(1.27791 0.199295 -7.66919e-21)
(1.27446 0.187155 2.66015e-21)
(0.814685 0.451785 0)
(0.825897 0.466912 0)
(0.837696 0.482367 1.04809e-21)
(0.850548 0.497968 -5.73212e-22)
(0.864921 0.51322 1.04084e-22)
(0.88132 0.52809 1.07419e-21)
(0.899707 0.541614 -1.93823e-21)
(0.920174 0.553701 -1.22586e-21)
(0.942774 0.563918 4.00134e-21)
(0.966663 0.571379 -4.37268e-21)
(0.991936 0.576217 -1.13731e-22)
(1.01825 0.578232 6.35075e-23)
(1.0443 0.577004 5.83263e-21)
(1.06986 0.57277 8.96238e-21)
(1.09515 0.565816 1.10039e-20)
(1.11909 0.556316 -1.44273e-22)
(1.14104 0.544666 -1.08333e-20)
(1.16135 0.531189 0)
(1.18012 0.51614 -1.25236e-20)
(1.1969 0.499991 1.32866e-20)
(1.21146 0.483244 -1.47423e-20)
(1.22418 0.466019 7.7648e-21)
(1.23534 0.448371 3.04124e-22)
(1.24502 0.430473 8.5616e-21)
(1.25302 0.41286 -1.6302e-20)
(1.25954 0.395632 0)
(1.26492 0.378551 2.51276e-20)
(1.26926 0.361657 -4.25408e-20)
(1.27263 0.344999 3.44765e-20)
(1.27502 0.32894 -2.63898e-20)
(1.27656 0.313469 -1.74267e-20)
(1.27739 0.298306 1.75629e-20)
(1.27758 0.283457 1.75483e-20)
(1.27716 0.268929 -1.76526e-20)
(1.27619 0.25488 8.77962e-21)
(1.27472 0.241346 2.01191e-22)
(1.27282 0.228165 0)
(1.27048 0.21529 0)
(1.26773 0.202765 4.27404e-21)
(1.26456 0.190663 0)
(0.829115 0.436582 7.46883e-22)
(0.839239 0.449874 1.30681e-22)
(0.84983 0.463441 -1.32935e-22)
(0.861266 0.477148 2.67813e-24)
(0.87394 0.490594 0)
(0.888276 0.503796 -3.47547e-22)
(0.904284 0.515964 6.14902e-22)
(0.922073 0.527058 -6.25827e-22)
(0.941752 0.536729 2.21797e-21)
(0.962688 0.544186 -2.67467e-21)
(0.984999 0.549536 4.15205e-21)
(1.00845 0.552567 0)
(1.03198 0.552785 -5.36984e-21)
(1.05537 0.550345 1.60812e-21)
(1.07881 0.545471 1.56961e-20)
(1.10133 0.538188 -1.6873e-20)
(1.12232 0.528766 2.7942e-20)
(1.14203 0.517498 -9.63937e-21)
(1.1605 0.504603 1.12611e-20)
(1.17727 0.490455 -1.19523e-20)
(1.19206 0.475489 0)
(1.20517 0.459858 1.30502e-20)
(1.21685 0.443643 1.24865e-20)
(1.22712 0.427019 0)
(1.23577 0.410476 0)
(1.24294 0.394139 1.3549e-20)
(1.24899 0.37783 6.93302e-21)
(1.25398 0.361604 -6.9563e-21)
(1.25798 0.345524 1.4215e-20)
(1.26098 0.329934 2.20306e-20)
(1.26307 0.314842 -1.48939e-20)
(1.26443 0.300007 0)
(1.26512 0.285439 -1.50371e-20)
(1.26516 0.271155 1.51321e-20)
(1.26462 0.257307 7.54536e-21)
(1.26354 0.243935 -5.39111e-23)
(1.262 0.230894 -7.60741e-21)
(1.25999 0.218141 0)
(1.25755 0.205722 -1.12483e-20)
(1.25464 0.193704 0)
(0.841635 0.423028 -8.97942e-22)
(0.850878 0.43482 9.07281e-22)
(0.860508 0.446837 6.14228e-22)
(0.870835 0.458977 -4.31921e-22)
(0.88219 0.470907 -1.0978e-22)
(0.894931 0.482667 3.19759e-22)
(0.909087 0.493602 6.71004e-22)
(0.924769 0.503708 -1.11741e-21)
(0.942106 0.512706 -2.63216e-22)
(0.960616 0.5199 2.23244e-21)
(0.980426 0.52539 -6.17001e-21)
(1.00138 0.528971 -6.32838e-22)
(1.02263 0.530131 1.38012e-20)
(1.04397 0.528966 -9.79513e-21)
(1.06557 0.525655 -6.37242e-21)
(1.08659 0.520118 7.67088e-21)
(1.10645 0.512527 -1.5141e-20)
(1.12533 0.503136 -7.75893e-21)
(1.14325 0.492123 1.80249e-20)
(1.15975 0.47978 -1.83114e-20)
(1.1745 0.466471 0)
(1.18775 0.452362 0)
(1.1997 0.437548 -8.72063e-22)
(1.21035 0.4222 0)
(1.21945 0.406756 0)
(1.22712 0.39136 -1.23096e-20)
(1.23369 0.375883 -1.17405e-20)
(1.23921 0.360393 -1.19775e-20)
(1.24375 0.344959 1.17518e-20)
(1.24725 0.329909 -6.89311e-21)
(1.24984 0.315268 -3.58513e-22)
(1.25167 0.300828 1.28905e-20)
(1.25281 0.286607 0)
(1.25328 0.272629 1.93368e-20)
(1.25313 0.25904 -1.31095e-20)
(1.25242 0.245888 -1.29178e-20)
(1.25121 0.233039 6.58418e-21)
(1.24952 0.220459 -3.26777e-21)
(1.24737 0.208192 1.00199e-20)
(1.24473 0.196302 0)
(0.852599 0.410823 5.88876e-22)
(0.86111 0.421369 -3.68898e-22)
(0.869954 0.432096 -1.48331e-22)
(0.879387 0.442925 3.74403e-22)
(0.889689 0.453575 1.33174e-22)
(0.901167 0.464093 1.9055e-22)
(0.913851 0.473933 -8.17044e-22)
(0.927848 0.48311 1.9291e-21)
(0.943291 0.4914 -2.85609e-21)
(0.959803 0.4982 -2.05311e-21)
(0.977514 0.503603 2.60888e-21)
(0.996331 0.507423 -3.28176e-21)
(1.01555 0.509163 6.83087e-21)
(1.03501 0.50888 4.51959e-21)
(1.05486 0.506716 9.79919e-21)
(1.07438 0.502529 5.94427e-22)
(1.09304 0.496412 -6.48755e-21)
(1.11098 0.488582 2.73991e-20)
(1.12817 0.479181 -3.60481e-20)
(1.14419 0.468426 3.12567e-20)
(1.1587 0.456617 -8.27095e-21)
(1.17189 0.44392 0)
(1.18391 0.430435 -7.29945e-22)
(1.19474 0.416322 0)
(1.20413 0.401968 0)
(1.21215 0.387528 0)
(1.2191 0.372911 7.03825e-22)
(1.22504 0.358193 3.22257e-20)
(1.23 0.343451 -3.25093e-20)
(1.23394 0.32899 -3.36277e-22)
(1.23694 0.314853 -2.23865e-20)
(1.23919 0.300861 1.11398e-20)
(1.24072 0.287041 -1.09449e-20)
(1.24157 0.27342 -1.71151e-20)
(1.24178 0.260141 -5.53019e-21)
(1.2414 0.247255 1.14067e-20)
(1.24051 0.234645 0)
(1.23911 0.222282 -5.57448e-21)
(1.23724 0.210209 -6.99221e-21)
(1.23485 0.198486 1.46674e-21)
(0.862276 0.399743 5.27241e-22)
(0.870168 0.409238 0)
(0.878354 0.418878 -1.1276e-21)
(0.887048 0.428598 3.33018e-22)
(0.89649 0.438158 9.97212e-23)
(0.90694 0.447608 6.26459e-24)
(0.918432 0.456482 0)
(0.93106 0.464809 -8.33813e-22)
(0.944953 0.472409 1.23654e-21)
(0.95981 0.478757 -1.7631e-21)
(0.975758 0.483944 -2.3106e-21)
(0.992741 0.487804 -4.3639e-22)
(1.01018 0.489871 -4.08203e-22)
(1.02795 0.490178 0)
(1.04619 0.488841 -1.27657e-20)
(1.06427 0.48568 1.35477e-20)
(1.08173 0.480733 0)
(1.09866 0.474183 -1.12657e-20)
(1.11503 0.46614 6.40082e-21)
(1.13044 0.456758 -1.34957e-20)
(1.14456 0.446281 6.34823e-21)
(1.15752 0.434867 0)
(1.16946 0.422613 7.69918e-21)
(1.18031 0.409666 -8.12708e-21)
(1.18983 0.396365 0)
(1.19806 0.382866 -1.74876e-20)
(1.20528 0.369111 1.8264e-20)
(1.21152 0.355178 9.50149e-21)
(1.21681 0.34115 -1.84588e-20)
(1.22109 0.32731 0)
(1.22444 0.313712 2.86396e-22)
(1.22703 0.300208 -1.90665e-20)
(1.2289 0.286827 1.00685e-20)
(1.23009 0.273603 0)
(1.23061 0.260675 5.09586e-21)
(1.23054 0.248096 -5.11527e-21)
(1.22993 0.235763 4.86156e-21)
(1.22881 0.223653 5.14033e-21)
(1.2272 0.211811 1.00141e-20)
(1.22504 0.200289 4.96325e-21)
(0.870876 0.389613 0)
(0.878236 0.398214 0)
(0.88586 0.406926 3.41272e-23)
(0.89393 0.4157 -6.01325e-22)
(0.902653 0.424324 -1.93828e-24)
(0.912253 0.432849 1.15254e-22)
(0.922758 0.440876 0)
(0.934256 0.448437 0)
(0.946864 0.455386 1.12117e-21)
(0.960337 0.461268 -1.14851e-21)
(0.974796 0.46617 4.30906e-22)
(0.99021 0.469947 -1.88621e-21)
(1.0061 0.472169 0)
(1.02237 0.472855 0)
(1.03913 0.472102 6.43378e-21)
(1.05587 0.469713 -7.34719e-21)
(1.07216 0.465687 7.26267e-22)
(1.08807 0.460175 5.68244e-21)
(1.10358 0.453262 -9.93451e-21)
(1.11831 0.445053 0)
(1.13193 0.435743 5.73478e-21)
(1.14456 0.425476 6.07591e-21)
(1.15627 0.414343 0)
(1.16703 0.402477 6.86776e-21)
(1.17656 0.390171 -1.42873e-20)
(1.18488 0.37758 0)
(1.19226 0.364668 7.97005e-21)
(1.19869 0.351514 -7.72136e-21)
(1.20422 0.338204 2.38071e-20)
(1.20876 0.324999 0)
(1.21238 0.311962 1.66819e-20)
(1.21526 0.298969 8.70185e-21)
(1.21741 0.286055 8.30131e-21)
(1.21888 0.273258 -8.59523e-21)
(1.21968 0.26071 8.67826e-21)
(1.21988 0.24847 0)
(1.21953 0.236446 -4.50226e-21)
(1.21865 0.224621 0)
(1.21728 0.213038 -4.51741e-21)
(1.21534 0.201748 -4.57608e-21)
(0.878566 0.380299 3.268e-22)
(0.88546 0.388129 -4.55157e-22)
(0.892597 0.396043 9.83318e-22)
(0.900131 0.404 2.75023e-22)
(0.908243 0.411816 -9.16589e-23)
(0.917124 0.419537 -2.12356e-22)
(0.9268 0.426818 1.06694e-22)
(0.937349 0.433693 -1.04764e-21)
(0.948878 0.440042 -6.12199e-22)
(0.961183 0.445468 -9.70683e-22)
(0.974375 0.450054 2.73893e-22)
(0.988441 0.453674 3.80866e-21)
(1.00298 0.455937 -3.90565e-21)
(1.01791 0.456854 -5.37123e-22)
(1.03335 0.456505 -6.29578e-22)
(1.04885 0.45469 1.3658e-20)
(1.06403 0.451382 -6.89981e-21)
(1.07896 0.446707 7.69996e-21)
(1.0936 0.440727 -9.0645e-21)
(1.1076 0.433512 5.96061e-23)
(1.12067 0.425212 -5.32325e-21)
(1.13287 0.415959 5.41699e-21)
(1.14428 0.405836 -1.61013e-22)
(1.15484 0.394958 0)
(1.16427 0.383579 0)
(1.1726 0.371847 -1.25222e-20)
(1.18003 0.359746 -6.46715e-21)
(1.18658 0.347351 -6.65592e-21)
(1.19225 0.334748 -4.46459e-22)
(1.19698 0.322178 -2.13838e-20)
(1.20081 0.309711 6.98844e-21)
(1.20391 0.297243 0)
(1.20629 0.284813 -1.52018e-20)
(1.208 0.272462 1.48928e-20)
(1.20904 0.260318 0)
(1.20946 0.248439 7.65449e-21)
(1.20934 0.236748 -3.87989e-21)
(1.20868 0.225232 -7.7355e-21)
(1.20752 0.213934 5.8188e-21)
(1.20578 0.202901 -5.77112e-21)
(0.885478 0.371692 0)
(0.89196 0.378852 0)
(0.898669 0.386071 -7.52538e-22)
(0.905736 0.393319 0)
(0.913318 0.400431 0)
(0.921582 0.40745 -8.87879e-23)
(0.930551 0.414073 9.10076e-23)
(0.940293 0.420335 9.86741e-22)
(0.950903 0.426137 1.4682e-21)
(0.962211 0.43113 2.88148e-21)
(0.974317 0.435391 3.75746e-21)
(0.987219 0.438814 3.25428e-21)
(1.00058 0.441044 -2.91567e-21)
(1.01433 0.442085 1.85562e-22)
(1.02858 0.442009 -4.57073e-21)
(1.04295 0.440618 1.11738e-20)
(1.05709 0.437868 -5.93205e-21)
(1.07108 0.433864 6.6095e-21)
(1.08486 0.428653 0)
(1.09813 0.422274 1.69449e-20)
(1.11061 0.414843 -1.70051e-20)
(1.12234 0.40648 -9.01157e-21)
(1.13338 0.397256 -1.98274e-20)
(1.14366 0.387273 -5.25304e-22)
(1.15292 0.376748 -3.28312e-22)
(1.16117 0.365821 2.27774e-20)
(1.16858 0.354487 6.02749e-21)
(1.17516 0.342821 1.78319e-20)
(1.18092 0.330905 -1.82526e-20)
(1.18576 0.318961 6.49708e-21)
(1.18974 0.307061 1.28247e-20)
(1.19301 0.295121 -1.29423e-20)
(1.19557 0.283184 0)
(1.19747 0.27129 -6.85335e-21)
(1.1987 0.259563 0)
(1.19932 0.248063 1.67875e-22)
(1.19939 0.236722 -6.82037e-21)
(1.19893 0.225534 0)
(1.19796 0.21454 6.67895e-21)
(1.1964 0.203784 1.85624e-22)
(0.891721 0.363702 6.16625e-22)
(0.897835 0.370276 -9.73097e-23)
(0.904162 0.376888 1.23581e-22)
(0.910816 0.383515 -2.09519e-24)
(0.917934 0.390009 2.7439e-22)
(0.925662 0.39641 7.71255e-23)
(0.934018 0.402451 2.41986e-22)
(0.943063 0.408167 4.62596e-22)
(0.952883 0.413472 7.04639e-22)
(0.96333 0.41806 -2.4311e-21)
(0.974497 0.422002 -2.17645e-21)
(0.986387 0.425208 0)
(0.998712 0.427357 6.2431e-21)
(1.01142 0.428451 7.68612e-23)
(1.0246 0.428552 -7.96351e-21)
(1.03794 0.42747 -5.0012e-21)
(1.05113 0.425153 5.16162e-21)
(1.06422 0.421687 5.69128e-21)
(1.07718 0.417107 -6.24953e-21)
(1.08973 0.41143 0)
(1.1016 0.404746 7.92366e-21)
(1.11283 0.397159 8.90032e-21)
(1.12346 0.388732 9.98145e-22)
(1.13342 0.379554 -2.69527e-20)
(1.14246 0.369808 -9.18264e-21)
(1.15055 0.359627 0)
(1.15789 0.349014 1.03015e-20)
(1.16444 0.338039 -2.12803e-20)
(1.17021 0.326782 1.11403e-20)
(1.17512 0.315445 -3.7955e-22)
(1.17919 0.304104 1.0831e-20)
(1.18257 0.292689 2.25383e-20)
(1.18527 0.281243 -5.65256e-21)
(1.18731 0.269811 0)
(1.1887 0.258509 -5.78542e-21)
(1.18949 0.247397 6.17062e-21)
(1.18972 0.23642 0)
(1.18942 0.225573 5.90603e-21)
(1.18862 0.214897 -7.7718e-21)
(1.18723 0.204434 4.64946e-21)
(0.897382 0.356259 0)
(0.903164 0.362315 0)
(0.909148 0.368391 -2.59313e-22)
(0.915434 0.374471 -1.85098e-24)
(0.922139 0.380421 -3.80913e-22)
(0.929394 0.386276 0)
(0.937213 0.3918 4.04849e-22)
(0.945651 0.397027 -1.4372e-21)
(0.954782 0.401882 0)
(0.964479 0.406095 0)
(0.974827 0.409733 0)
(0.98583 0.412714 -2.4429e-21)
(0.997243 0.414754 2.28183e-21)
(1.00902 0.415851 -3.26672e-22)
(1.02125 0.41606 -1.49855e-22)
(1.03365 0.415202 -7.27644e-23)
(1.04597 0.41322 -3.64381e-22)
(1.05823 0.410185 -5.36658e-21)
(1.07041 0.406123 0)
(1.08226 0.401036 0)
(1.09353 0.394992 0)
(1.10424 0.388081 2.18395e-20)
(1.11443 0.380358 -1.41303e-20)
(1.12403 0.371899 1.62455e-20)
(1.1328 0.362862 4.51657e-22)
(1.14071 0.353366 -8.75396e-21)
(1.1479 0.343424 8.84023e-21)
(1.15438 0.3331 -9.34377e-21)
(1.16012 0.322469 1.86341e-20)
(1.16503 0.311718 -5.99576e-22)
(1.16915 0.300919 -1.02651e-20)
(1.1726 0.290019 -6.01204e-22)
(1.1754 0.27906 -4.70457e-21)
(1.17755 0.268088 1.04308e-20)
(1.17906 0.257213 1.6711e-22)
(1.17997 0.246495 -5.32206e-21)
(1.18034 0.235888 5.34868e-21)
(1.18019 0.225391 -1.61991e-20)
(1.17953 0.215043 3.92014e-21)
(1.17828 0.204886 1.34927e-21)
(0.902535 0.349303 -1.45804e-22)
(0.908015 0.354898 2.76915e-22)
(0.913689 0.360499 9.63448e-22)
(0.919641 0.366094 3.09272e-22)
(0.925977 0.37156 1.13477e-22)
(0.93281 0.376931 9.95662e-25)
(0.940154 0.381995 -2.46178e-23)
(0.948055 0.386783 -3.4414e-22)
(0.95658 0.391231 1.48242e-21)
(0.965619 0.395099 -2.32198e-21)
(0.975245 0.398449 1.53934e-21)
(0.985468 0.401209 2.45148e-22)
(0.996072 0.403124 -4.649e-21)
(1.00702 0.40419 -5.54076e-21)
(1.0184 0.404458 3.30742e-21)
(1.02995 0.40376 7.28008e-21)
(1.04146 0.402036 4.27755e-21)
(1.05295 0.399348 -1.29666e-20)
(1.06439 0.395712 0)
(1.07557 0.391121 0)
(1.08625 0.385624 5.61619e-21)
(1.09645 0.379301 1.27153e-20)
(1.1062 0.372198 -1.31217e-20)
(1.11541 0.364382 -5.70644e-22)
(1.12388 0.355986 -5.09801e-22)
(1.13156 0.347119 -4.55393e-22)
(1.13859 0.337798 7.58972e-21)
(1.14494 0.328083 8.07805e-21)
(1.1506 0.318044 -1.71536e-20)
(1.15549 0.30785 8.04742e-21)
(1.15962 0.297576 8.86142e-21)
(1.1631 0.287175 -4.53938e-22)
(1.16595 0.276694 3.16137e-22)
(1.16817 0.266176 9.27432e-21)
(1.16978 0.255725 -4.67933e-21)
(1.17079 0.245403 -9.46828e-21)
(1.17127 0.235169 4.77756e-21)
(1.17123 0.225027 4.94475e-21)
(1.1707 0.215014 -2.67507e-22)
(1.16957 0.205169 0)
(0.907242 0.342782 1.02642e-21)
(0.912446 0.347966 -1.78992e-22)
(0.917835 0.353143 -4.79011e-22)
(0.923484 0.358305 -2.71799e-22)
(0.929485 0.36334 -2.37528e-23)
(0.93594 0.368278 -1.08791e-22)
(0.942858 0.37293 -5.55701e-22)
(0.950281 0.377324 5.845e-22)
(0.958268 0.381405 0)
(0.966722 0.384956 1.15608e-21)
(0.975709 0.388037 -1.46224e-21)
(0.985239 0.390583 3.6891e-21)
(0.995122 0.392366 -6.18556e-21)
(1.00533 0.39338 2.4454e-21)
(1.01594 0.393672 5.92921e-21)
(1.02672 0.393085 -9.3507e-21)
(1.03749 0.39156 0)
(1.04826 0.389151 4.10975e-21)
(1.05902 0.385868 0)
(1.06956 0.381694 4.57916e-21)
(1.07967 0.376667 -1.58213e-20)
(1.08937 0.370855 1.06238e-20)
(1.09867 0.3643 -1.16492e-20)
(1.10749 0.357057 0)
(1.11564 0.349239 -6.26492e-21)
(1.12307 0.340947 0)
(1.1299 0.3322 -1.41714e-20)
(1.1361 0.323051 1.43105e-20)
(1.14165 0.313568 0)
(1.14647 0.303904 -1.56557e-20)
(1.15057 0.294131 -9.59556e-23)
(1.15405 0.284215 7.73714e-21)
(1.15692 0.274197 -8.10717e-21)
(1.15919 0.264124 0)
(1.16086 0.254092 0)
(1.16195 0.244162 0)
(1.16252 0.234302 1.25498e-20)
(1.16257 0.224515 -4.29745e-21)
(1.16214 0.214841 -2.40315e-22)
(1.16113 0.205314 0)
(0.911553 0.336655 -2.30714e-22)
(0.916503 0.34147 -1.60412e-22)
(0.921631 0.346266 3.99526e-22)
(0.927002 0.35104 -2.4419e-22)
(0.932698 0.355689 1.84589e-24)
(0.938809 0.36024 -9.77983e-23)
(0.945343 0.364521 1.08174e-22)
(0.952337 0.368561 -4.16588e-22)
(0.959842 0.372307 1.35052e-21)
(0.967773 0.37557 9.63145e-22)
(0.976189 0.3784 0)
(0.985099 0.380743 1.67665e-21)
(0.994337 0.38239 2.07484e-22)
(1.00388 0.38334 -2.3608e-21)
(1.01379 0.383631 4.64885e-21)
(1.02388 0.38312 0)
(1.03397 0.38175 0)
(1.04408 0.379566 1.40502e-20)
(1.05419 0.376573 5.92694e-22)
(1.06413 0.372753 -4.30645e-21)
(1.0737 0.36813 8.75313e-21)
(1.08291 0.362765 -9.36216e-21)
(1.09176 0.356692 -4.64363e-21)
(1.10019 0.34996 -1.10825e-20)
(1.10801 0.342664 1.71608e-20)
(1.11518 0.334897 1.21293e-20)
(1.12178 0.326677 -3.08722e-20)
(1.1278 0.318055 1.89705e-20)
(1.13322 0.309092 1.3392e-20)
(1.13794 0.29993 -6.90727e-21)
(1.14199 0.290636 0)
(1.14544 0.281183 6.93663e-21)
(1.14831 0.271614 0)
(1.1506 0.261973 0)
(1.1523 0.252352 7.4821e-21)
(1.15344 0.24281 -1.49098e-20)
(1.15408 0.23332 -1.52725e-20)
(1.15421 0.223888 -7.4751e-21)
(1.15387 0.214553 -6.76532e-21)
(1.15294 0.205345 -9.48301e-22)
(0.915514 0.330884 0)
(0.920229 0.335366 0)
(0.925114 0.33982 -7.41529e-22)
(0.930229 0.344244 1.60855e-23)
(0.935644 0.348545 6.93426e-23)
(0.941442 0.352747 9.18877e-23)
(0.947626 0.356696 -2.6434e-22)
(0.954231 0.360414 0)
(0.961303 0.363858 -6.88458e-22)
(0.968763 0.366856 -2.64689e-21)
(0.976665 0.369455 2.1738e-21)
(0.985017 0.371605 2.66259e-21)
(0.993673 0.373121 0)
(1.00261 0.373997 -3.7122e-21)
(1.01189 0.37427 -8.91929e-21)
(1.02134 0.373809 9.58918e-21)
(1.03081 0.372559 4.36846e-22)
(1.04031 0.370557 -1.88268e-20)
(1.04983 0.367808 7.00874e-21)
(1.0592 0.364287 -2.25198e-20)
(1.06826 0.360013 -5.37279e-22)
(1.07699 0.355039 5.62738e-22)
(1.08541 0.349392 5.93442e-22)
(1.09345 0.343116 9.8568e-21)
(1.10094 0.336292 3.85007e-22)
(1.10782 0.329002 -9.97635e-21)
(1.11419 0.321267 -5.65699e-21)
(1.12002 0.313133 -6.21375e-21)
(1.12528 0.304658 1.17052e-20)
(1.12989 0.295967 -6.29929e-21)
(1.13385 0.287128 0)
(1.13726 0.27812 -1.68031e-22)
(1.1401 0.268983 -1.93163e-20)
(1.14238 0.259761 -3.50893e-23)
(1.1441 0.25054 6.68431e-21)
(1.14528 0.241378 6.97612e-21)
(1.14596 0.232253 7.03879e-21)
(1.14615 0.223173 7.09082e-21)
(1.14587 0.214174 1.02986e-20)
(1.14502 0.205286 0)
(0.919162 0.325438 3.43933e-23)
(0.923657 0.329619 -4.44134e-22)
(0.928318 0.333762 3.4424e-22)
(0.933194 0.33787 -2.14084e-22)
(0.938351 0.341858 -3.34018e-23)
(0.94386 0.345744 0)
(0.949725 0.349391 2.53376e-22)
(0.955975 0.352819 0)
(0.962652 0.355989 -1.16936e-21)
(0.969685 0.358745 1.65223e-21)
(0.977121 0.36113 -2.078e-21)
(0.984969 0.3631 -2.54335e-21)
(0.993099 0.364487 -2.85775e-21)
(1.00149 0.365287 -1.10026e-22)
(1.0102 0.365532 7.751e-21)
(1.01907 0.365101 7.91839e-23)
(1.02796 0.363943 4.12974e-22)
(1.0369 0.36209 0)
(1.04586 0.359544 1.2569e-20)
(1.05471 0.35628 -6.37665e-21)
(1.06327 0.352308 7.36007e-21)
(1.07155 0.347676 -7.37342e-21)
(1.07955 0.342408 2.42656e-20)
(1.0872 0.33654 0)
(1.09436 0.330142 0)
(1.10096 0.323288 5.88032e-22)
(1.10709 0.315999 -1.0217e-20)
(1.1127 0.308318 0)
(1.11779 0.300296 -4.04816e-22)
(1.12227 0.29205 1.08236e-20)
(1.12614 0.283642 -3.8131e-22)
(1.12948 0.275057 1.13613e-20)
(1.13227 0.266334 6.00763e-21)
(1.13453 0.257516 -1.16944e-20)
(1.13625 0.248684 -1.84349e-23)
(1.13744 0.239893 6.07523e-21)
(1.13815 0.231126 0)
(1.13838 0.222393 2.9348e-21)
(1.13816 0.213727 -3.28643e-21)
(1.13738 0.205156 -5.87706e-21)
(0.922528 0.320291 6.89059e-23)
(0.926819 0.324197 7.51797e-22)
(0.931269 0.328058 -8.90191e-23)
(0.935924 0.33188 3.46008e-22)
(0.94084 0.335582 8.82959e-23)
(0.946082 0.339183 -5.7214e-24)
(0.951653 0.342557 4.3921e-22)
(0.957578 0.345721 0)
(0.963894 0.34864 2.18044e-21)
(0.970537 0.351175 0)
(0.97755 0.353363 0)
(0.98494 0.355165 0)
(0.992589 0.35643 5.30153e-21)
(1.00048 0.357152 0)
(1.00866 0.357361 3.14546e-22)
(1.017 0.356947 -1.18749e-20)
(1.02537 0.355861 8.59878e-21)
(1.03379 0.35413 4.7976e-21)
(1.04224 0.351756 0)
(1.05058 0.348711 -5.73604e-21)
(1.05868 0.345003 -6.58093e-21)
(1.06652 0.340673 4.98006e-24)
(1.07412 0.335742 -7.91772e-21)
(1.0814 0.330239 7.13253e-21)
(1.08823 0.324227 7.97208e-21)
(1.09455 0.317772 5.19827e-22)
(1.10042 0.310893 -8.61205e-21)
(1.10583 0.30363 -3.70602e-22)
(1.11074 0.296032 -4.13053e-22)
(1.11507 0.288202 0)
(1.11883 0.280203 -2.04581e-20)
(1.12208 0.272021 3.0509e-20)