/*--------------------------------*- C++ -*----------------------------------*\
| =========                 |                                                 |
| \\      /  F ield         | OpenFOAM: The Open Source CFD Toolbox           |
|  \\    /   O peration     | Version:  3.0.1                                 |
|   \\  /    A nd           | Web:      www.OpenFOAM.org                      |
|    \\/     M anipulation  |                                                 |
\*---------------------------------------------------------------------------*/
FoamFile
{
    version     2.0;
    format      ascii;
    class       volScalarField;
    location    "50";
    object      nut;
}
// * * * * * * * * * * * * * * * * * * * * * * * * * * * * * * * * * * * * * //

dimensions      [0 2 -1 0 0 0 0];

internalField   nonuniform List<scalar> 
58000
(
0.00154376
0.00131878
0.00109889
0.000927294
0.000805254
0.00071627
0.000655153
0.000607719
0.000578594
0.000562389
0.000552474
0.000548296
0.000548145
0.000548207
0.000549582
0.000553172
0.000558449
0.000564239
0.000570404
0.000577422
0.000585287
0.00059321
0.000601224
0.00060925
0.000617835
0.00062588
0.000633787
0.000641589
0.000649232
0.000657228
0.000664527
0.000670712
0.000675929
0.000680493
0.000684571
0.000686662
0.000687169
0.000687313
0.000687703
0.000692642
0.00674042
0.0059633
0.00519501
0.00450429
0.00396133
0.00353875
0.00321993
0.00297131
0.00279267
0.00266696
0.00257601
0.00251797
0.0024777
0.00244391
0.00241292
0.00239936
0.00239959
0.00240362
0.00241161
0.00242972
0.00245615
0.00248438
0.00251458
0.00254844
0.00258842
0.00262601
0.00266321
0.00270159
0.0027422
0.00278653
0.00282826
0.00285767
0.0028801
0.0028991
0.00291623
0.00292576
0.00292853
0.00292901
0.00293106
0.00294059
0.012822
0.0117838
0.010669
0.00951709
0.00850317
0.0076619
0.00701949
0.00650875
0.0061131
0.00582001
0.00559893
0.00542913
0.00531919
0.00524496
0.00519046
0.00516659
0.00516896
0.00518503
0.00521223
0.00525649
0.00531397
0.00537534
0.00543972
0.00550992
0.0055887
0.0056594
0.00572446
0.00578896
0.00585612
0.00593133
0.00600224
0.00606889
0.00613151
0.00618781
0.00623431
0.00626332
0.00627512
0.00627591
0.00626908
0.00625214
0.0193806
0.0181649
0.0167947
0.0153772
0.0140432
0.0128302
0.0118387
0.0110161
0.0103603
0.00986371
0.00946814
0.00916333
0.00895596
0.00880987
0.00870415
0.00865134
0.00864116
0.00865484
0.00868835
0.00874925
0.00883105
0.00891959
0.00900697
0.00910166
0.0092161
0.00932996
0.00944065
0.00955164
0.00966473
0.00978343
0.00989135
0.00998887
0.0100786
0.0101626
0.0102405
0.0102903
0.0103103
0.0103065
0.0102795
0.0102178
0.0260921
0.0247778
0.0232695
0.0216848
0.0201279
0.0186682
0.0174015
0.0162942
0.0153717
0.0146488
0.0140564
0.0135875
0.013257
0.013015
0.0128331
0.0127296
0.0126894
0.012685
0.0127094
0.0127733
0.0128655
0.0129706
0.0130862
0.0132154
0.0133737
0.0135266
0.0136739
0.0138215
0.0139745
0.0141441
0.0142955
0.0144302
0.0145512
0.0146626
0.0147672
0.0148346
0.0148597
0.0148466
0.0147919
0.014676
0.0327582
0.0313997
0.0298308
0.0281556
0.0264823
0.024857
0.0233986
0.0220804
0.0209318
0.0199964
0.0192065
0.0185617
0.0180904
0.0177341
0.0174578
0.017284
0.0171954
0.017158
0.0171572
0.01721
0.0173093
0.0174289
0.0175677
0.0177199
0.0179052
0.0180947
0.0182822
0.0184723
0.0186643
0.0188708
0.019065
0.0192428
0.0193981
0.0195377
0.0196664
0.0197494
0.0197778
0.0197534
0.0196683
0.0194966
0.0392417
0.0378799
0.0363064
0.0346082
0.0328881
0.0311729
0.0295957
0.0281207
0.0268056
0.0257003
0.024739
0.0239256
0.0233108
0.0228323
0.022454
0.0221969
0.0220443
0.0219551
0.0219207
0.0219579
0.022058
0.0221804
0.0223243
0.0224969
0.022715
0.0229362
0.0231557
0.0233783
0.0236115
0.0238586
0.0240907
0.0243053
0.0244924
0.0246591
0.0248103
0.0249079
0.0249399
0.0249049
0.0247918
0.0245694
0.0454459
0.0441101
0.0425699
0.0408968
0.0391826
0.0374403
0.0358009
0.0342376
0.0328072
0.0315643
0.0304603
0.0295112
0.0287685
0.0281708
0.0276807
0.0273371
0.0271189
0.0269766
0.0269014
0.0269138
0.0269963
0.027116
0.027265
0.0274514
0.0276862
0.0279339
0.028186
0.0284394
0.0287029
0.0289898
0.0292571
0.0295038
0.029721
0.0299142
0.0300871
0.0301997
0.0302371
0.0301956
0.030061
0.0297989
0.0513064
0.0500172
0.0485353
0.0469185
0.0452473
0.0435268
0.0418764
0.0402756
0.0387736
0.0374478
0.036242
0.0351781
0.034325
0.033622
0.0330332
0.0326059
0.0323235
0.0321245
0.0320014
0.031977
0.0320394
0.0321526
0.0322989
0.032487
0.0327379
0.033004
0.0332753
0.0335581
0.0338503
0.0341688
0.0344656
0.0347369
0.0349857
0.0352057
0.0354003
0.0355293
0.0355757
0.0355341
0.0353883
0.0351024
0.056785
0.055556
0.0541485
0.0526074
0.0509989
0.0493372
0.0477163
0.0461207
0.0445937
0.0432204
0.041945
0.0408069
0.0398712
0.0390819
0.0384076
0.037901
0.0375463
0.0372906
0.037122
0.0370657
0.0371024
0.0371963
0.0373385
0.0375254
0.0377789
0.0380602
0.0383481
0.0386507
0.0389659
0.0393101
0.0396339
0.0399313
0.0402069
0.0404525
0.0406684
0.0408155
0.0408757
0.0408425
0.0406987
0.0404084
0.0618636
0.0607035
0.0593802
0.0579285
0.0564028
0.0548157
0.0532487
0.0516879
0.0501721
0.0487816
0.0474775
0.0462937
0.0453
0.0444413
0.0436983
0.0431263
0.0427118
0.0424064
0.0421915
0.0420941
0.0421026
0.0421789
0.042305
0.0424902
0.0427444
0.0430282
0.0433289
0.0436415
0.0439763
0.0443388
0.0446899
0.0450123
0.0453138
0.0455879
0.045823
0.0459903
0.0460705
0.0460559
0.0459293
0.0456565
0.0665399
0.0654526
0.0642178
0.0628618
0.0614288
0.0599285
0.0584309
0.0569211
0.0554476
0.054072
0.0527646
0.0515562
0.0505272
0.0496307
0.0488409
0.0482178
0.0477514
0.0473938
0.0471364
0.0470066
0.046986
0.0470355
0.0471468
0.0473186
0.047572
0.047857
0.0481646
0.0484849
0.0488278
0.0492101
0.0495811
0.0499224
0.0502478
0.0505462
0.0508056
0.0509985
0.0511062
0.0511216
0.0510287
0.0507964
0.0708236
0.0698097
0.0686632
0.0674041
0.0660679
0.0646615
0.0632451
0.0618041
0.0603864
0.0590461
0.0577588
0.0565528
0.0555105
0.0545904
0.0537694
0.0531096
0.052604
0.0522071
0.051911
0.0517436
0.0516975
0.0517235
0.0518126
0.0519727
0.0522129
0.0524932
0.0528065
0.0531342
0.0534851
0.05388
0.0542659
0.0546238
0.0549686
0.0552903
0.0555762
0.0557992
0.055942
0.0559988
0.0559563
0.0557874
0.0747334
0.0737904
0.0727292
0.0715646
0.0703246
0.0690139
0.0676842
0.0663214
0.0649701
0.0636785
0.0624272
0.0612436
0.060206
0.0592771
0.0584356
0.0577507
0.0572168
0.0567943
0.0564689
0.0562709
0.0561935
0.0562
0.0562714
0.0564169
0.0566438
0.0569134
0.0572203
0.0575547
0.0579119
0.0583147
0.0587121
0.0590842
0.0594438
0.0597914
0.0601061
0.0603634
0.0605482
0.0606574
0.0606811
0.0605976
0.0782945
0.0774165
0.0764356
0.0753607
0.0742135
0.0729971
0.0717552
0.0704746
0.0691962
0.0679617
0.0667534
0.0656091
0.0645912
0.0636655
0.0628266
0.062131
0.0615766
0.0611258
0.0607754
0.0605556
0.0604525
0.0604342
0.0604907
0.0606203
0.0608341
0.0610932
0.0613902
0.0617267
0.0620869
0.0624902
0.0628992
0.063286
0.0636628
0.0640337
0.0643776
0.0646722
0.0649051
0.0650765
0.0651807
0.0652026
0.0815222
0.0807098
0.0798052
0.0788148
0.0777558
0.0766296
0.0754739
0.0742763
0.073074
0.0719032
0.0707487
0.069649
0.068661
0.0677547
0.0669276
0.0662325
0.0656678
0.0651991
0.0648263
0.06458
0.0644524
0.0644171
0.0644555
0.0645613
0.064764
0.0650194
0.0653086
0.0656379
0.0660023
0.0664064
0.0668176
0.0672197
0.0676139
0.0680072
0.0683808
0.0687149
0.0690011
0.069243
0.0694402
0.0695848
0.0844493
0.0836981
0.0828647
0.081953
0.0809762
0.0799351
0.078862
0.0777455
0.0766193
0.075515
0.0744196
0.0733692
0.0724142
0.0715394
0.0707339
0.070048
0.0694814
0.0690024
0.0686098
0.0683479
0.0681999
0.0681408
0.0681618
0.0682567
0.0684462
0.0686933
0.0689736
0.0692955
0.0696589
0.0700616
0.0704745
0.0708866
0.0712955
0.0717097
0.0721127
0.0724881
0.0728314
0.0731507
0.0734512
0.0737328
0.0871047
0.0864099
0.0856419
0.0848026
0.0839019
0.0829397
0.0819442
0.0809052
0.0798534
0.0788159
0.0777818
0.0767852
0.0758712
0.0750298
0.0742508
0.0735803
0.0730185
0.0725368
0.0721334
0.0718545
0.0716947
0.0716183
0.0716256
0.0717057
0.0718804
0.0721163
0.0723864
0.0726997
0.0730592
0.0734583
0.073871
0.0742899
0.0747108
0.0751443
0.0755761
0.0759938
0.076397
0.0767987
0.0772104
0.0776402
0.0895157
0.0888724
0.0881641
0.0873914
0.0865608
0.0856706
0.084747
0.0837809
0.0828
0.0818278
0.0808551
0.0799137
0.079044
0.078239
0.0774899
0.0768386
0.076286
0.075808
0.0754013
0.0751125
0.0749431
0.0748496
0.0748379
0.0749091
0.0750698
0.0752928
0.0755524
0.0758563
0.0762098
0.0766034
0.0770139
0.077437
0.0778678
0.0783186
0.0787785
0.0792387
0.0797034
0.0801909
0.0807191
0.081305
0.0917075
0.091111
0.0904569
0.089745
0.0889812
0.0881546
0.0872966
0.0863981
0.085484
0.0845745
0.0836617
0.0827751
0.0819509
0.081184
0.080467
0.0798373
0.0792939
0.078826
0.078422
0.078127
0.0779438
0.0778425
0.0778183
0.0778781
0.0780235
0.0782292
0.0784803
0.0787748
0.0791205
0.0795071
0.0799139
0.080339
0.0807774
0.0812432
0.0817304
0.082233
0.0827599
0.0833346
0.0839825
0.084729
0.0937034
0.0931494
0.0925438
0.0918859
0.0911801
0.0904143
0.0896175
0.0887818
0.0879302
0.0870802
0.086225
0.0853917
0.0846126
0.0838842
0.0832007
0.0825962
0.0820684
0.0816069
0.08121
0.0809133
0.0807223
0.0806118
0.0805762
0.0806245
0.0807554
0.080946
0.0811853
0.0814682
0.0818036
0.0821823
0.0825844
0.0830098
0.0834535
0.0839297
0.0844453
0.0849898
0.0855782
0.0862401
0.0870083
0.0879173
0.0955252
0.0950096
0.0944478
0.0938381
0.0931838
0.0924736
0.0917331
0.0909556
0.0901621
0.0893684
0.0885685
0.0877858
0.0870508
0.0863596
0.0857094
0.0851321
0.0846273
0.0841777
0.0837832
0.0834855
0.0832913
0.0831706
0.0831237
0.0831601
0.0832778
0.0834544
0.0836812
0.0839507
0.0842712
0.0846437
0.0850409
0.0854655
0.0859137
0.0864018
0.0869412
0.0875245
0.088172
0.0889193
0.0898067
0.0908776
0.0971919
0.0967114
0.0961894
0.0956235
0.0950148
0.0943547
0.093666
0.0929424
0.0922018
0.0914606
0.0907155
0.0899788
0.0892884
0.0886301
0.0880112
0.0874597
0.0869749
0.0865393
0.0861522
0.0858549
0.0856535
0.0855295
0.0854736
0.085496
0.0856042
0.0857685
0.0859828
0.0862393
0.0865468
0.0869095
0.0872999
0.0877222
0.088174
0.0886734
0.0892333
0.0898522
0.0905557
0.0913855
0.0923892
0.0936193
0.0987208
0.0982721
0.0977866
0.0972626
0.0966928
0.0960773
0.095436
0.094764
0.0940695
0.0933751
0.0926776
0.091986
0.0913358
0.0907124
0.0901243
0.0895976
0.0891318
0.0887105
0.0883333
0.088039
0.0878348
0.0877065
0.0876431
0.0876548
0.0877518
0.0879034
0.0881052
0.0883488
0.0886434
0.088995
0.0893772
0.0897958
0.0902501
0.0907613
0.0913367
0.0919874
0.0927435
0.0936522
0.0947684
0.0961536
0.100127
0.099707
0.0992541
0.098765
0.0982326
0.097658
0.0970591
0.0964318
0.095782
0.0951311
0.0944771
0.0938277
0.0932151
0.0926255
0.092067
0.0915639
0.091116
0.0907088
0.0903422
0.0900528
0.0898479
0.0897162
0.0896464
0.0896489
0.0897345
0.0898736
0.0900628
0.0902934
0.090575
0.0909147
0.0912875
0.0917007
0.0921551
0.0926733
0.0932641
0.0939445
0.0947498
0.0957333
0.0969575
0.0984926
0.101422
0.10103
0.100608
0.100148
0.0996497
0.0991127
0.098553
0.0979655
0.0973568
0.0967463
0.0961325
0.0955225
0.0949453
0.0943882
0.0938573
0.0933759
0.0929443
0.0925499
0.0921943
0.0919108
0.0917065
0.0915723
0.091497
0.0914911
0.0915659
0.0916926
0.0918692
0.0920868
0.0923554
0.0926825
0.093045
0.0934514
0.0939039
0.0944263
0.0950305
0.0957378
0.0965887
0.0976428
0.09897
0.100649
0.102619
0.102251
0.101856
0.101424
0.100957
0.100455
0.0999338
0.0993807
0.0988098
0.0982371
0.0976602
0.0970871
0.0965429
0.0960191
0.0955122
0.09505
0.0946326
0.0942471
0.093904
0.093627
0.093424
0.0932879
0.0932079
0.0931943
0.0932585
0.0933731
0.0935371
0.0937421
0.0939977
0.0943119
0.0946634
0.0950617
0.0955105
0.096035
0.0966502
0.0973814
0.0982743
0.0993944
0.100819
0.102637
0.103727
0.103383
0.103009
0.102604
0.102166
0.101697
0.101208
0.100689
0.100154
0.0996185
0.0990741
0.0985369
0.0980203
0.0975246
0.0970458
0.0966008
0.0961967
0.0958209
0.0954866
0.0952149
0.0950133
0.0948756
0.0947913
0.0947705
0.0948246
0.0949272
0.0950782
0.0952714
0.0955144
0.0958156
0.0961554
0.0965445
0.0969882
0.0975129
0.0981366
0.0988887
0.0998197
0.101001
0.102518
0.104469
0.104753
0.10443
0.104078
0.103698
0.103288
0.10285
0.102389
0.101901
0.101399
0.100896
0.100383
0.099877
0.0993887
0.0989179
0.098463
0.0980396
0.097649
0.0972803
0.0969532
0.0966862
0.0964859
0.0963468
0.0962587
0.0962312
0.0962754
0.0963659
0.0965019
0.0966867
0.0969176
0.097205
0.0975325
0.0979117
0.0983488
0.098872
0.0995019
0.100272
0.101237
0.102475
0.10408
0.106157
0.105707
0.105402
0.105071
0.104714
0.10433
0.103919
0.103486
0.103028
0.102559
0.102083
0.101599
0.101121
0.100662
0.100212
0.0997768
0.0993692
0.0989904
0.0986321
0.0983131
0.098051
0.0978522
0.097712
0.0976204
0.0975867
0.0976218
0.0977013
0.097825
0.0979984
0.0982168
0.0984907
0.0988056
0.0991738
0.0996033
0.100123
0.100757
0.101542
0.102538
0.103829
0.105515
0.107714
0.106594
0.106307
0.105997
0.105663
0.105304
0.104915
0.104507
0.104077
0.103636
0.103188
0.102734
0.102279
0.101844
0.101418
0.101001
0.100604
0.100232
0.0998857
0.0995755
0.0993187
0.0991216
0.0989806
0.0988861
0.0988468
0.0988733
0.0989426
0.099055
0.0992165
0.0994221
0.0996824
0.0999842
0.100341
0.100761
0.101277
0.101913
0.102711
0.103734
0.105072
0.106836
0.109151
0.107422
0.107151
0.10686
0.106549
0.10621
0.105845
0.105461
0.10506
0.104642
0.104219
0.10379
0.10336
0.102944
0.102536
0.102135
0.101753
0.101389
0.101052
0.10075
0.100498
0.100303
0.100161
0.100064
0.10002
0.100038
0.100098
0.1002
0.10035
0.100542
0.100789
0.101077
0.101421
0.101832
0.102342
0.102979
0.103786
0.104833
0.106216
0.108052
0.110479
0.108196
0.10794
0.107668
0.107376
0.107057
0.106714
0.106354
0.105976
0.105584
0.105187
0.104779
0.104372
0.103975
0.10358
0.103192
0.102817
0.102465
0.102138
0.101843
0.101597
0.101404
0.101262
0.101163
0.101114
0.101125
0.101176
0.101267
0.101406
0.101586
0.101818
0.102093
0.102421
0.102824
0.103328
0.103964
0.104778
0.105845
0.107268
0.109172
0.111707
0.10892
0.10868
0.108426
0.10815
0.107851
0.107529
0.107193
0.106836
0.106468
0.106091
0.105706
0.105317
0.104937
0.104558
0.104179
0.103812
0.103469
0.103151
0.102864
0.102623
0.102432
0.102291
0.10219
0.102136
0.10214
0.102183
0.102264
0.102391
0.102559
0.102779
0.103039
0.103355
0.103746
0.104243
0.104875
0.105694
0.106778
0.108237
0.110205
0.112843
0.109599
0.109372
0.109134
0.108875
0.108596
0.108296
0.107978
0.107642
0.107295
0.106938
0.106572
0.106202
0.105836
0.105468
0.105096
0.10474
0.104407
0.104097
0.103818
0.103582
0.103394
0.103253
0.10315
0.103093
0.103091
0.103125
0.103197
0.103314
0.10347
0.103676
0.103923
0.104226
0.104606
0.105093
0.10572
0.106541
0.107639
0.10913
0.111158
0.113896
0.110236
0.110021
0.109798
0.109557
0.109297
0.109015
0.108717
0.108402
0.108072
0.107735
0.107386
0.107028
0.106672
0.106312
0.105951
0.105607
0.105284
0.104983
0.104712
0.104481
0.104296
0.104155
0.104051
0.103991
0.103982
0.104009
0.104072
0.104178
0.104323
0.104516
0.104751
0.105041
0.105408
0.105885
0.106505
0.107326
0.108435
0.109954
0.112038
0.114872
0.110835
0.110632
0.110422
0.110198
0.109954
0.10969
0.109412
0.109115
0.108804
0.108483
0.108146
0.107802
0.107456
0.107102
0.106752
0.106419
0.106106
0.105814
0.10555
0.105325
0.105143
0.105003
0.104898
0.104834
0.10482
0.10484
0.104894
0.10499
0.105123
0.105304
0.105526
0.105803
0.106159
0.106624
0.107235
0.108053
0.10917
0.110714
0.112851
0.115778
0.1114
0.111207
0.111008
0.110799
0.110571
0.110326
0.110064
0.109785
0.10949
0.109181
0.108858
0.108524
0.108183
0.107841
0.107503
0.10718
0.106877
0.106594
0.106338
0.106119
0.10594
0.105802
0.105696
0.105629
0.10561
0.105622
0.105668
0.105754
0.105875
0.106044
0.106255
0.10652
0.106862
0.107315
0.107916
0.108729
0.109851
0.111417
0.113602
0.11662
0.111935
0.11175
0.111561
0.111364
0.111152
0.110922
0.110678
0.110414
0.11013
0.109834
0.109521
0.109193
0.108864
0.108534
0.108207
0.107895
0.107602
0.107329
0.107081
0.106867
0.106693
0.106555
0.106449
0.106379
0.106355
0.106361
0.106399
0.106475
0.106585
0.106743
0.106941
0.107193
0.107523
0.107962
0.108552
0.109358
0.110482
0.112065
0.114296
0.117401
0.112442
0.112264
0.112082
0.111895
0.111696
0.111482
0.111252
0.111
0.11073
0.110441
0.110136
0.10982
0.109503
0.109185
0.10887
0.108569
0.108286
0.108022
0.107782
0.107575
0.107405
0.107268
0.107161
0.107089
0.10706
0.10706
0.10709
0.107157
0.107256
0.107403
0.107589
0.107829
0.108146
0.108571
0.109148
0.109945
0.111067
0.112665
0.114937
0.118127
0.112924
0.112752
0.112577
0.112397
0.112207
0.112004
0.111787
0.11155
0.111292
0.111011
0.110715
0.110411
0.110105
0.109798
0.109495
0.109206
0.108933
0.108678
0.108446
0.108245
0.108082
0.107945
0.107836
0.107762
0.107728
0.107722
0.107745
0.107803
0.107893
0.108028
0.108202
0.10843
0.108735
0.109144
0.109706
0.110491
0.11161
0.113219
0.115529
0.118801
0.113384
0.113217
0.113048
0.112874
0.112691
0.112497
0.112289
0.112063
0.111817
0.111547
0.111261
0.110968
0.110674
0.110379
0.110087
0.109808
0.109545
0.109299
0.109075
0.108881
0.108722
0.108587
0.108478
0.108401
0.108363
0.108351
0.108367
0.108417
0.108496
0.108621
0.108783
0.108998
0.10929
0.109683
0.110229
0.111002
0.112114
0.113732
0.116076
0.119428
0.113825
0.113662
0.113497
0.113328
0.113152
0.112964
0.112765
0.112548
0.112312
0.112052
0.111778
0.111496
0.111213
0.11093
0.110649
0.110381
0.110127
0.10989
0.109673
0.109485
0.10933
0.109197
0.109088
0.10901
0.108968
0.108951
0.10896
0.109001
0.109071
0.109184
0.109335
0.109537
0.109814
0.110191
0.110721
0.111479
0.112583
0.114205
0.116581
0.120009
0.114248
0.11409
0.113929
0.113764
0.113592
0.113411
0.113218
0.113009
0.112782
0.112533
0.112269
0.111998
0.111726
0.111454
0.111184
0.110926
0.110682
0.110453
0.110244
0.110062
0.10991
0.109779
0.109671
0.109592
0.109546
0.109523
0.109525
0.109557
0.109618
0.109721
0.10986
0.110049
0.110311
0.110672
0.111185
0.111926
0.113019
0.114643
0.117047
0.120548
0.114656
0.114501
0.114344
0.114183
0.114015
0.113839
0.113652
0.113451
0.113232
0.112992
0.112739
0.112478
0.112217
0.111955
0.111696
0.111447
0.111212
0.110992
0.11079
0.110614
0.110465
0.110335
0.110229
0.110151
0.110099
0.11007
0.110065
0.110087
0.11014
0.110233
0.110361
0.110537
0.110785
0.111129
0.111623
0.112346
0.113426
0.115048
0.117476
0.121048
0.11505
0.114898
0.114744
0.114587
0.114423
0.114251
0.11407
0.113875
0.113664
0.113433
0.113189
0.112939
0.112687
0.112435
0.112186
0.111947
0.111721
0.111508
0.111314
0.111145
0.110998
0.110869
0.110762
0.110683
0.110628
0.110594
0.110585
0.110597
0.110641
0.110724
0.110841
0.111004
0.111236
0.111563
0.112038
0.112742
0.113805
0.115422
0.117871
0.121512
0.115431
0.115282
0.115131
0.114977
0.114817
0.11465
0.114474
0.114284
0.11408
0.113857
0.113623
0.113382
0.11314
0.112898
0.112658
0.112428
0.112209
0.112004
0.111817
0.111654
0.111508
0.111381
0.111274
0.111194
0.111135
0.111096
0.111078
0.111085
0.111121
0.111194
0.111301
0.111452
0.111669
0.111977
0.112432
0.113115
0.114159
0.115768
0.118235
0.121941
0.115801
0.115655
0.115507
0.115356
0.1152
0.115036
0.114864
0.114681
0.114483
0.114268
0.114042
0.11381
0.113577
0.113344
0.113113
0.112891
0.112681
0.112483
0.112301
0.112142
0.112
0.111874
0.111767
0.111685
0.111623
0.111579
0.111555
0.111555
0.111583
0.111648
0.111744
0.111885
0.112085
0.112374
0.112808
0.113468
0.114491
0.116089
0.118568
0.122339
0.116161
0.116018
0.115873
0.115724
0.115571
0.115411
0.115244
0.115066
0.114874
0.114666
0.114448
0.114224
0.114
0.113775
0.113553
0.113339
0.113136
0.112946
0.11277
0.112615
0.112474
0.11235
0.112244
0.112159
0.112093
0.112044
0.112015
0.112008
0.112029
0.112085
0.11217
0.112299
0.112484
0.112755
0.113166
0.113803
0.114803
0.116386
0.118875
0.122706
0.116513
0.116372
0.116229
0.116084
0.115934
0.115777
0.115614
0.115441
0.115255
0.115054
0.114843
0.114627
0.114411
0.114194
0.11398
0.113774
0.113578
0.113395
0.113227
0.113073
0.112933
0.11281
0.112706
0.112617
0.112547
0.112494
0.112459
0.112447
0.112461
0.112507
0.112582
0.112699
0.112867
0.11312
0.11351
0.114121
0.115096
0.116661
0.119156
0.123046
0.116856
0.116719
0.116578
0.116435
0.116288
0.116135
0.115976
0.115807
0.115627
0.115432
0.115229
0.11502
0.114811
0.114601
0.114395
0.114196
0.114008
0.113831
0.113668
0.113516
0.113378
0.113255
0.11315
0.11306
0.112986
0.112929
0.11289
0.112872
0.112879
0.112917
0.112981
0.113085
0.113238
0.113473
0.11384
0.114426
0.115373
0.116917
0.119414
0.123359
0.117193
0.117058
0.116919
0.116779
0.116634
0.116485
0.116329
0.116165
0.115991
0.115802
0.115605
0.115403
0.115201
0.114999
0.114799
0.114607
0.114426
0.114257
0.114096
0.113946
0.113809
0.113686
0.113581
0.113488
0.113411
0.113349
0.113307
0.113285
0.113288
0.113315
0.113367
0.113459
0.113598
0.113814
0.114159
0.114718
0.115636
0.117155
0.11965
0.123649
0.117524
0.117391
0.117255
0.117117
0.116975
0.116828
0.116677
0.116517
0.116347
0.116165
0.115974
0.115779
0.115583
0.115387
0.115194
0.115009
0.114834
0.11467
0.114512
0.114364
0.114228
0.114105
0.113998
0.113904
0.113825
0.113759
0.113712
0.113686
0.113683
0.113701
0.113744
0.113823
0.113948
0.114146
0.114468
0.114999
0.115886
0.117378
0.119866
0.123915
0.11785
0.117719
0.117585
0.117449
0.11731
0.117166
0.117018
0.116862
0.116698
0.116522
0.116337
0.116147
0.115957
0.115768
0.115581
0.115402
0.115233
0.115073
0.114918
0.114772
0.114637
0.114513
0.114403
0.114309
0.114228
0.11416
0.11411
0.114079
0.114069
0.114079
0.114111
0.114179
0.114289
0.114469
0.114768
0.115271
0.116125
0.117587
0.120065
0.124161
0.118172
0.118043
0.117911
0.117777
0.11764
0.117499
0.117354
0.117203
0.117044
0.116875
0.116693
0.116509
0.116324
0.116141
0.115961
0.115788
0.115626
0.115468
0.115315
0.115171
0.115037
0.114914
0.114802
0.114705
0.114622
0.114552
0.114501
0.114465
0.114447
0.114448
0.114471
0.114528
0.114624
0.114786
0.115062
0.115535
0.116356
0.117784
0.120247
0.124387
0.11849
0.118364
0.118234
0.118102
0.117967
0.117829
0.117686
0.117538
0.117384
0.117221
0.117044
0.116865
0.116686
0.116508
0.116334
0.116168
0.116009
0.115854
0.115704
0.115562
0.11543
0.115306
0.115193
0.115094
0.115007
0.114935
0.114881
0.114841
0.114815
0.114809
0.114824
0.11487
0.114953
0.115097
0.11535
0.115793
0.116578
0.11797
0.120415
0.124595
0.118806
0.118681
0.118553
0.118423
0.118291
0.118155
0.118015
0.11787
0.11772
0.117561
0.117389
0.117215
0.117042
0.11687
0.116702
0.116542
0.116386
0.116233
0.116085
0.115946
0.115818
0.115692
0.115577
0.115476
0.115386
0.115311
0.115254
0.115209
0.115178
0.115164
0.115172
0.115207
0.115276
0.115403
0.115633
0.116047
0.116794
0.118147
0.120569
0.124787
0.11912
0.118997
0.118871
0.118743
0.118612
0.118478
0.118341
0.1182
0.118052
0.117898
0.117731
0.117562
0.117394
0.117228
0.117065
0.116909
0.116755
0.116605
0.116459
0.116322
0.116196
0.116071
0.115955
0.115851
0.115759
0.115682
0.115621
0.115571
0.115535
0.115515
0.115517
0.115541
0.115596
0.115706
0.115913
0.116296
0.117006
0.118317
0.120712
0.124962
0.119433
0.119312
0.119187
0.119061
0.118932
0.1188
0.118666
0.118527
0.118383
0.118232
0.11807
0.117905
0.117742
0.117582
0.117425
0.117271
0.117119
0.116971
0.116828
0.116694
0.116568
0.116443
0.116326
0.11622
0.116127
0.116047
0.115983
0.115929
0.115887
0.115861
0.115856
0.115869
0.115912
0.116005
0.116189
0.116543
0.117213
0.11848
0.120844
0.125123
0.119746
0.119627
0.119503
0.119378
0.119251
0.119122
0.11899
0.118853
0.118712
0.118565
0.118407
0.118246
0.118088
0.117934
0.117779
0.117627
0.117477
0.117332
0.117192
0.117062
0.116936
0.11681
0.116693
0.116586
0.116491
0.116409
0.116341
0.116282
0.116235
0.116203
0.11619
0.116194
0.116224
0.116301
0.116464
0.116787
0.117418
0.118639
0.120968
0.12527
0.12006
0.119942
0.11982
0.119697
0.119571
0.119443
0.119313
0.119179
0.119041
0.118897
0.118743
0.118586
0.118431
0.11828
0.118128
0.117979
0.117832
0.117689
0.117552
0.117424
0.117298
0.117173
0.117056
0.116948
0.116852
0.116768
0.116696
0.116632
0.116579
0.116541
0.11652
0.116515
0.116534
0.116595
0.116737
0.11703
0.117621
0.118794
0.121083
0.125405
0.120377
0.12026
0.120139
0.120017
0.119893
0.119766
0.119638
0.119506
0.11937
0.119229
0.119079
0.118925
0.118772
0.118623
0.118475
0.118327
0.118183
0.118043
0.11791
0.117781
0.117656
0.117533
0.117415
0.117307
0.117212
0.117126
0.117048
0.116978
0.11692
0.116878
0.116848
0.116833
0.116841
0.116887
0.117008
0.117273
0.117824
0.118947
0.121192
0.125529
0.120697
0.120581
0.120461
0.12034
0.120217
0.120092
0.119965
0.119835
0.119702
0.119564
0.119417
0.119266
0.119114
0.118965
0.11882
0.118675
0.118533
0.118394
0.118263
0.118135
0.11801
0.117888
0.11777
0.117664
0.117566
0.117477
0.117394
0.11732
0.117257
0.117209
0.117173
0.117149
0.117146
0.117179
0.11728
0.117516
0.118027
0.119099
0.121296
0.125643
0.121024
0.120909
0.120789
0.120669
0.120546
0.120422
0.120296
0.120168
0.120036
0.119901
0.119759
0.119608
0.119458
0.11931
0.119167
0.119024
0.118883
0.118745
0.118614
0.118486
0.118362
0.11824
0.118123
0.118016
0.117916
0.117823
0.117737
0.117658
0.11759
0.117537
0.117494
0.117463
0.11745
0.11747
0.117552
0.117761
0.118232
0.119251
0.121396
0.125747
0.12136
0.121245
0.121125
0.121005
0.120883
0.120759
0.120634
0.120506
0.120376
0.120242
0.120102
0.119954
0.119806
0.119659
0.119516
0.119374
0.119234
0.119096
0.118965
0.118837
0.118712
0.118591
0.118475
0.118366
0.118263
0.118167
0.118077
0.117994
0.117922
0.117864
0.117814
0.117776
0.117754
0.117761
0.117826
0.118008
0.118439
0.119404
0.121494
0.125843
0.121709
0.121592
0.121473
0.121352
0.12123
0.121105
0.12098
0.120852
0.120723
0.12059
0.120451
0.120305
0.120158
0.120012
0.11987
0.119728
0.119588
0.11945
0.119316
0.119189
0.119064
0.118943
0.118825
0.118715
0.11861
0.11851
0.118416
0.11833
0.118253
0.11819
0.118135
0.118089
0.118058
0.118054
0.118101
0.118257
0.118649
0.119559
0.12159
0.125931
0.122074
0.121956
0.121836
0.121713
0.12159
0.121465
0.121339
0.12121
0.12108
0.120947
0.12081
0.120664
0.120518
0.120372
0.12023
0.120088
0.119948
0.119809
0.119674
0.119545
0.119419
0.119297
0.119177
0.119064
0.118957
0.118854
0.118757
0.118667
0.118585
0.118517
0.118456
0.118404
0.118365
0.118349
0.11838
0.118511
0.118864
0.119719
0.121686
0.126014
0.12246
0.122341
0.122218
0.122094
0.121968
0.121841
0.121713
0.121584
0.121452
0.121319
0.121181
0.121035
0.120889
0.120742
0.120598
0.120456
0.120315
0.120175
0.120038
0.119907
0.119779
0.119655
0.119533
0.119417
0.119306
0.119201
0.1191
0.119006
0.11892
0.118847
0.11878
0.118721
0.118674
0.118647
0.118662
0.118769
0.119085
0.119883
0.121784
0.12609
0.122872
0.12275
0.122625
0.122498
0.122369
0.12224
0.122109
0.121977
0.121843
0.121708
0.121569
0.121423
0.121275
0.121126
0.120979
0.120835
0.120693
0.120551
0.120412
0.120276
0.120147
0.12002
0.119896
0.119775
0.119661
0.119551
0.119447
0.119349
0.119259
0.119181
0.119108
0.119042
0.118986
0.118949
0.118949
0.119033
0.119312
0.120054
0.121885
0.126163
0.123315
0.123189
0.12306
0.122929
0.122797
0.122664
0.122529
0.122394
0.122257
0.122118
0.121977
0.121832
0.12168
0.121528
0.121377
0.121231
0.121085
0.120941
0.120798
0.120659
0.120526
0.120395
0.120267
0.120143
0.120024
0.119909
0.1198
0.119698
0.119606
0.119521
0.119441
0.119368
0.119304
0.119256
0.119241
0.119303
0.119546
0.120231
0.121989
0.126232
0.123792
0.123662
0.123528
0.123393
0.123256
0.123118
0.122979
0.122839
0.122698
0.122555
0.122411
0.122262
0.122107
0.121952
0.121797
0.121646
0.121497
0.121348
0.121201
0.121057
0.120919
0.120783
0.120651
0.120522
0.120397
0.120278
0.120164
0.120056
0.119959
0.119868
0.119781
0.1197
0.119627
0.119569
0.11954
0.11958
0.119788
0.120417
0.1221
0.1263
0.124306
0.124171
0.124032
0.123892
0.12375
0.123607
0.123463
0.123317
0.123171
0.123023
0.122873
0.122721
0.122562
0.122402
0.122242
0.122085
0.121931
0.121777
0.121624
0.121475
0.121329
0.121189
0.12105
0.120915
0.120785
0.120659
0.120539
0.120426
0.120322
0.120223
0.120129
0.12004
0.119959
0.11989
0.119847
0.119866
0.120039
0.120613
0.122216
0.126366
0.124857
0.124718
0.124574
0.124429
0.124281
0.124133
0.123982
0.123831
0.123678
0.123525
0.123369
0.123211
0.123048
0.122882
0.122716
0.122552
0.122391
0.122231
0.122073
0.121916
0.121764
0.121615
0.12147
0.121328
0.12119
0.121057
0.12093
0.120812
0.120699
0.120591
0.120489
0.120391
0.1203
0.12022
0.120163
0.120162
0.120302
0.120819
0.122342
0.126432
0.125446
0.125302
0.125153
0.125003
0.12485
0.124695
0.124539
0.124382
0.124223
0.124063
0.123901
0.123737
0.12357
0.123397
0.123224
0.123052
0.122884
0.122716
0.12255
0.122386
0.122225
0.122067
0.121914
0.121763
0.121617
0.121475
0.121339
0.121213
0.121091
0.120975
0.120862
0.120755
0.120654
0.120562
0.120491
0.120469
0.120576
0.121039
0.122478
0.1265
0.126068
0.12592
0.125767
0.125612
0.125454
0.125295
0.125133
0.12497
0.124805
0.124638
0.12447
0.1243
0.124127
0.123947
0.123767
0.123587
0.123411
0.123235
0.12306
0.122888
0.122717
0.12255
0.122386
0.122226
0.12207
0.121918
0.121772
0.121636
0.121504
0.121377
0.121254
0.121136
0.121023
0.120919
0.120833
0.120791
0.120865
0.121272
0.122625
0.12657
0.126717
0.126567
0.126411
0.126253
0.126091
0.125927
0.125761
0.125592
0.125422
0.12525
0.125075
0.124899
0.12472
0.124534
0.124347
0.124159
0.123973
0.12379
0.123606
0.123424
0.123244
0.123067
0.122892
0.12272
0.122553
0.12239
0.122234
0.122087
0.121943
0.121804
0.121669
0.121538
0.121412
0.121294
0.121192
0.121129
0.121171
0.121523
0.122787
0.126645
0.127388
0.127236
0.127079
0.126918
0.126754
0.126587
0.126418
0.126245
0.126071
0.125894
0.125714
0.125532
0.125348
0.125157
0.124963
0.124769
0.124574
0.124382
0.124189
0.123997
0.123807
0.123619
0.123433
0.12325
0.123071
0.122897
0.122729
0.122569
0.122412
0.122259
0.12211
0.121964
0.121824
0.121691
0.121572
0.121486
0.121496
0.121792
0.122964
0.126725
0.128073
0.127921
0.127763
0.127602
0.127437
0.127269
0.127098
0.126923
0.126746
0.126565
0.126382
0.126196
0.126007
0.125814
0.125614
0.125412
0.125211
0.12501
0.124809
0.124608
0.124408
0.124209
0.124012
0.123817
0.123626
0.12344
0.123261
0.123086
0.122914
0.122746
0.122581
0.12242
0.122263
0.122113
0.121974
0.121865
0.121841
0.122081
0.123159
0.126811
0.128762
0.128612
0.128456
0.128296
0.128132
0.127964
0.127793
0.127618
0.12744