/*--------------------------------*- C++ -*----------------------------------*\
| =========                 |                                                 |
| \\      /  F ield         | OpenFOAM: The Open Source CFD Toolbox           |
|  \\    /   O peration     | Version:  3.0.1                                 |
|   \\  /    A nd           | Web:      www.OpenFOAM.org                      |
|    \\/     M anipulation  |                                                 |
\*---------------------------------------------------------------------------*/
FoamFile
{
    version     2.0;
    format      ascii;
    class       volScalarField;
    location    "50";
    object      p;
}
// * * * * * * * * * * * * * * * * * * * * * * * * * * * * * * * * * * * * * //

dimensions      [0 2 -2 0 0 0 0];

internalField   nonuniform List<scalar> 
58000
(
0.731558
0.494758
0.260189
0.0768618
-0.0558318
-0.157626
-0.235377
-0.296506
-0.345498
-0.380635
-0.407143
-0.428337
-0.444204
-0.457205
-0.469462
-0.479989
-0.487862
-0.494915
-0.501803
-0.507819
-0.512191
-0.516058
-0.519942
-0.523528
-0.526143
-0.527849
-0.529717
-0.531618
-0.533272
-0.534313
-0.534878
-0.535714
-0.536706
-0.537674
-0.538449
-0.537801
-0.53339
-0.52777
-0.524487
-0.524174
0.61398
0.544489
0.459312
0.352876
0.237809
0.125423
0.0264281
-0.0630373
-0.139862
-0.203547
-0.257814
-0.301643
-0.334919
-0.361751
-0.384097
-0.401942
-0.416565
-0.429157
-0.440095
-0.449316
-0.457098
-0.464016
-0.470155
-0.475562
-0.479983
-0.483962
-0.487537
-0.490678
-0.493404
-0.495576
-0.497633
-0.499529
-0.50117
-0.502493
-0.503361
-0.503786
-0.503382
-0.502828
-0.503603
-0.506356
0.447822
0.411765
0.370386
0.31317
0.244032
0.166547
0.0869453
0.0108548
-0.0617857
-0.125507
-0.181988
-0.23158
-0.272116
-0.305315
-0.333795
-0.357415
-0.37654
-0.392666
-0.406684
-0.418727
-0.428823
-0.437444
-0.445062
-0.45184
-0.457727
-0.462683
-0.46704
-0.470919
-0.474389
-0.477443
-0.480029
-0.482296
-0.484291
-0.48602
-0.487446
-0.488483
-0.489058
-0.489371
-0.489944
-0.490804
0.364304
0.340714
0.314716
0.279231
0.235052
0.182651
0.123668
0.0633509
0.00132416
-0.0569611
-0.111479
-0.161938
-0.205526
-0.242857
-0.27593
-0.303985
-0.327173
-0.347059
-0.364426
-0.379279
-0.391767
-0.40254
-0.412058
-0.420455
-0.42767
-0.433876
-0.439399
-0.444312
-0.448679
-0.452478
-0.455809
-0.458779
-0.461394
-0.463669
-0.465599
-0.467238
-0.468611
-0.469773
-0.470895
-0.471902
0.292482
0.276596
0.260201
0.237583
0.208604
0.172881
0.129765
0.0839072
0.0337223
-0.0160313
-0.0645191
-0.111601
-0.154362
-0.1923
-0.22705
-0.257536
-0.283324
-0.305822
-0.325738
-0.342963
-0.357553
-0.370192
-0.381412
-0.391348
-0.399934
-0.407321
-0.413911
-0.419787
-0.425028
-0.429614
-0.433629
-0.437222
-0.440412
-0.443228
-0.445677
-0.447815
-0.449694
-0.45132
-0.452698
-0.453645
0.240612
0.228037
0.215866
0.199807
0.179426
0.154086
0.122159
0.0874418
0.0476427
0.00647821
-0.0349322
-0.0767191
-0.116329
-0.152558
-0.186747
-0.21774
-0.244621
-0.268529
-0.290043
-0.308933
-0.325131
-0.339289
-0.351945
-0.363205
-0.372978
-0.381419
-0.388986
-0.395759
-0.401821
-0.407127
-0.411776
-0.415953
-0.419683
-0.423003
-0.425911
-0.428468
-0.430733
-0.432689
-0.434269
-0.435258
0.200863
0.190231
0.180227
0.167671
0.152188
0.133181
0.108795
0.0820584
0.050464
0.016757
-0.0179683
-0.0540939
-0.0895898
-0.122895
-0.155121
-0.185213
-0.211947
-0.236189
-0.258384
-0.278211
-0.295446
-0.310659
-0.32438
-0.336676
-0.347426
-0.35675
-0.365148
-0.372698
-0.379479
-0.385428
-0.390649
-0.395352
-0.399565
-0.403332
-0.406641
-0.409546
-0.412111
-0.414311
-0.416045
-0.417103
0.170147
0.160637
0.15178
0.14118
0.128564
0.113435
0.0940645
0.0728477
0.0473794
0.0196576
-0.00937445
-0.0402652
-0.0715056
-0.101446
-0.13102
-0.159356
-0.185089
-0.208858
-0.230985
-0.251083
-0.268801
-0.284611
-0.29902
-0.312041
-0.323515
-0.333519
-0.342578
-0.350763
-0.358144
-0.364636
-0.370342
-0.375492
-0.380118
-0.384263
-0.387903
-0.391085
-0.393881
-0.396262
-0.398116
-0.399255
0.146037
0.137268
0.12907
0.119611
0.108724
0.0960132
0.079992
0.0625601
0.0415673
0.018466
-0.00597984
-0.0323899
-0.0596832
-0.0862933
-0.113024
-0.139204
-0.163436
-0.186181
-0.207678
-0.227519
-0.245266
-0.261275
-0.276014
-0.289447
-0.301394
-0.311872
-0.321413
-0.330076
-0.33792
-0.344844
-0.350936
-0.356445
-0.361403
-0.36585
-0.369749
-0.373141
-0.376104
-0.378616
-0.380559
-0.381786
0.126842
0.118625
0.110862
0.102121
0.0923255
0.0811701
0.0674247
0.0526076
0.0348579
0.0152571
-0.00559028
-0.0283168
-0.0521684
-0.0757378
-0.0997236
-0.123634
-0.146133
-0.16755
-0.188064
-0.207279
-0.224701
-0.240585
-0.255349
-0.268919
-0.281108
-0.291861
-0.301711
-0.310699
-0.318866
-0.326103
-0.332479
-0.338258
-0.343466
-0.348135
-0.352224
-0.355762
-0.35884
-0.361438
-0.363445
-0.364759
0.111334
0.103572
0.0961477
0.0879154
0.0788601
0.0687529
0.0565959
0.0436207
0.0282421
0.0112884
-0.00677288
-0.0265387
-0.0474847
-0.0683947
-0.0898812
-0.111599
-0.132324
-0.152293
-0.171636
-0.189988
-0.206838
-0.222355
-0.236909
-0.250389
-0.262616
-0.273472
-0.283471
-0.29264
-0.301
-0.30844
-0.315007
-0.320967
-0.326343
-0.331158
-0.335369
-0.338999
-0.342144
-0.344791
-0.346838
-0.348236
0.0986076
0.0912455
0.0841273
0.0763062
0.0678061
0.058455
0.0474491
0.0358056
0.0221887
0.00725117
-0.00864875
-0.0260522
-0.0445927
-0.0632384
-0.0825292
-0.102231
-0.12125
-0.139762
-0.157861
-0.175224
-0.19135
-0.206334
-0.220505
-0.233726
-0.245828
-0.256638
-0.266647
-0.275872
-0.28431
-0.291857
-0.298526
-0.304588
-0.310056
-0.314948
-0.319221
-0.322893
-0.326065
-0.328728
-0.330793
-0.332266
0.0879925
0.0809886
0.0741698
0.0667232
0.0586868
0.0499271
0.0397985
0.0291541
0.0168743
0.00349302
-0.0107129
-0.0262282
-0.0427938
-0.0595379
-0.0769329
-0.0948289
-0.112267
-0.129382
-0.14625
-0.162582
-0.177897
-0.192246
-0.205918
-0.218759
-0.230614
-0.241263
-0.251172
-0.260342
-0.268761
-0.276327
-0.28302
-0.289111
-0.294605
-0.299514
-0.3038
-0.307472
-0.310634
-0.313283
-0.315345
-0.316885
0.078997
0.072311
0.0657864
0.0587003
0.0510858
0.0428301
0.0334111
0.0235553
0.0123243
0.000169111
-0.0126914
-0.0266842
-0.0416216
-0.0567694
-0.0725445
-0.0888558
-0.104868
-0.120687
-0.136373
-0.151683
-0.166163
-0.179823
-0.192923
-0.2053
-0.216818
-0.227223
-0.236947
-0.245979
-0.254296
-0.261803
-0.268453
-0.27451
-0.279976
-0.284852
-0.289107
-0.292741
-0.295862
-0.298472
-0.300512
-0.302105
0.0712771
0.0648662
0.0586176
0.0518757
0.0446581
0.0368595
0.0280495
0.0188518
0.00847738
-0.00268384
-0.014454
-0.0272031
-0.0407892
-0.0545949
-0.0689884
-0.0839179
-0.0986599
-0.1133
-0.127885
-0.142209
-0.155858
-0.168815
-0.181309
-0.19317
-0.204285
-0.214383
-0.223861
-0.232691
-0.24084
-0.248229
-0.25478
-0.260751
-0.26614
-0.270942
-0.275128
-0.278692
-0.281746
-0.284293
-0.286294
-0.287925
0.0646027
0.0584232
0.0524172
0.0459879
0.0391384
0.0317626
0.0234961
0.0148747
0.00522854
-0.00509939
-0.0159625
-0.0276778
-0.0401305
-0.0528007
-0.0660123
-0.0797368
-0.0933495
-0.106924
-0.120497
-0.133894
-0.146739
-0.158999
-0.170873
-0.182195
-0.192873
-0.202619
-0.211802
-0.220383
-0.228315
-0.235536
-0.241945
-0.247789
-0.253061
-0.257751
-0.261837
-0.265305
-0.268269
-0.270734
-0.272678
-0.274329
0.0588212
0.0528329
0.0470257
0.0408631
0.0343409
0.0273514
0.0195764
0.0114742
0.00246766
-0.00713978
-0.0172259
-0.0280619
-0.0395502
-0.051248
-0.0634392
-0.0761107
-0.0887217
-0.101336
-0.113986
-0.126519
-0.138601
-0.150186
-0.161447
-0.172225
-0.182446
-0.191815
-0.200667
-0.208961
-0.21664
-0.223654
-0.229887
-0.23557
-0.240693
-0.245242
-0.2492
-0.252552
-0.255405
-0.257771
-0.259641
-0.261293
0.053823
0.0479946
0.0423424
0.0363944
0.0301491
0.0235009
0.0161661
0.00853465
0.000100172
-0.00887007
-0.0182744
-0.0283458
-0.0389989
-0.0498525
-0.0611543
-0.0729
-0.0846198
-0.0963704
-0.10818
-0.119917
-0.131281
-0.14222
-0.152885
-0.163124
-0.17288
-0.181854
-0.190354
-0.198335
-0.205735
-0.212513
-0.218541
-0.224038
-0.228986
-0.233371
-0.237181
-0.240397
-0.243123
-0.245375
-0.247154
-0.248785
0.0495148
0.0438282
0.0382972
0.0325162
0.0264955
0.0201377
0.0131887
0.00597896
-0.0019429
-0.0103438
-0.0191409
-0.0285365
-0.0384542
-0.0485637
-0.0590813
-0.0700071
-0.0809304
-0.0919015
-0.102946
-0.11395
-0.124641
-0.134966
-0.145058
-0.154771
-0.164061
-0.172634
-0.180769
-0.188422
-0.195525
-0.202045
-0.207848
-0.213137
-0.217891
-0.222094
-0.225739
-0.228803
-0.231389
-0.233512
-0.235184
-0.236772
0.0458037
0.0402547
0.0348277
0.0291796
0.023339
0.0172222
0.010603
0.00376359
-0.00370318
-0.0115957
-0.0198488
-0.0286411
-0.037904
-0.0473501
-0.0571687
-0.0673618
-0.0775695
-0.0878351
-0.0981803
-0.108508
-0.118571
-0.128315
-0.137859
-0.147063
-0.155893
-0.164064
-0.171831
-0.179145
-0.185938
-0.192185
-0.197747
-0.202813
-0.207358
-0.211365
-0.214831
-0.217731
-0.220165
-0.222146
-0.223695
-0.225218
0.0425919
0.037189
0.0318664
0.0263355
0.0206446
0.0147276
0.00838696
0.00186669
-0.00520146
-0.0126436
-0.0204105
-0.0286626
-0.0373393
-0.0461897
-0.0553805
-0.0649137
-0.0744741
-0.0840988
-0.093804
-0.103505
-0.112982
-0.12218
-0.1312
-0.139914
-0.148292
-0.156066
-0.163464
-0.170436
-0.176912
-0.182875
-0.188185
-0.193015
-0.19734
-0.20114
-0.204417
-0.207143
-0.209413
-0.21124
-0.212653
-0.214088
0.0397821
0.0345417
0.0293381
0.023926
0.0183705
0.0126252
0.00652123
0.000274358
-0.00644798
-0.0134942
-0.0208291
-0.0285983
-0.0367493
-0.0450632
-0.0536878
-0.0626244
-0.0715952
-0.0806332
-0.0897509
-0.0988729
-0.107801
-0.116481
-0.125005
-0.133247
-0.141187
-0.148571
-0.155602
-0.16223
-0.168388
-0.174061
-0.179111
-0.183697
-0.187793
-0.191379
-0.194458
-0.197001
-0.199097
-0.20076
-0.202024
-0.203349
0.0372855
0.0322263
0.0271639
0.0218843
0.0164648
0.0108771
0.00498072
-0.0010294
-0.00745154
-0.0141511
-0.0211033
-0.0284417
-0.036121
-0.0439506
-0.0520628
-0.0604586
-0.068891
-0.0773896
-0.0859649
-0.0945498
-0.102965
-0.111158
-0.119208
-0.127
-0.134516
-0.141518
-0.148187
-0.154475
-0.160313
-0.165695
-0.17048
-0.174816
-0.178676
-0.182041
-0.184916
-0.187268
-0.189182
-0.190673
-0.191776
-0.192972
0.0350276
0.030166
0.0252684
0.0201417
0.014869
0.00943712
0.0037316
-0.00206709
-0.0082248
-0.0146192
-0.0212323
-0.0281863
-0.0354425
-0.0428344
-0.0504823
-0.0583861
-0.0663261
-0.0743286
-0.0824027
-0.0904882
-0.0984229
-0.106156
-0.113758
-0.12112
-0.128228
-0.134857
-0.141171
-0.147122
-0.152644
-0.157733
-0.162251
-0.166334
-0.169955
-0.173094
-0.175757
-0.177912
-0.179638
-0.180949
-0.181882
-0.182933
0.0329509
0.0282984
0.0235857
0.0186328
0.013523
0.00825364
0.0027328
-0.00286942
-0.00878817
-0.0149099
-0.0212203
-0.0278305
-0.0347064
-0.0417027
-0.0489288
-0.0563844
-0.0638733
-0.071419
-0.0790289
-0.0866496
-0.0941342
-0.101434
-0.10861
-0.115562
-0.122276
-0.128543
-0.13451
-0.14013
-0.14534
-0.150137
-0.154388
-0.158217
-0.161596
-0.164505
-0.166952
-0.168906
-0.170439
-0.171563
-0.172319
-0.17321
0.031015
0.0265762
0.0220625
0.0173009
0.0123701
0.00727417
0.00193924
-0.00347299
-0.00916935
-0.0150422
-0.0210785
-0.0273784
-0.0339108
-0.0405479
-0.0473897
-0.0544358
-0.0615103
-0.0686342
-0.0758138
-0.0830013
-0.0900635
-0.0969542
-0.103726
-0.110286
-0.116622
-0.122539
-0.128168
-0.133464
-0.138366
-0.142874
-0.146859
-0.150433
-0.15357
-0.156248
-0.158477
-0.160226
-0.161562
-0.162496
-0.163067
-0.163786
0.0291936
0.0249671
0.0206592
0.0161004
0.0113619
0.00645065
0.00130671
-0.00391606
-0.00939925
-0.0150393
-0.020823
-0.0268392
-0.0330584
-0.0393671
-0.0458568
-0.0525272
-0.0592197
-0.0659534
-0.0727334
-0.0795164
-0.0861818
-0.0926857
-0.0990737
-0.10526
-0.111234
-0.116812
-0.122113
-0.127092
-0.131694
-0.135916
-0.139637
-0.142959
-0.145853
-0.148301
-0.15031
-0.151852
-0.152988
-0.153729
-0.154113
-0.154649
0.0274716
0.0234507
0.0193488
0.014998
0.0104604
0.00574292
0.000795995
-0.0042347
-0.00950888
-0.0149261
-0.0204721
-0.0262249
-0.0321554
-0.0381615
-0.0443264
-0.05065
-0.0569892
-0.0633608
-0.0697687
-0.0761734
-0.0824654
-0.0886036
-0.0946276
-0.100457
-0.106083
-0.111335
-0.116318
-0.12099
-0.125298
-0.12924
-0.1327
-0.135771
-0.138426
-0.140643
-0.142433
-0.143768
-0.144704
-0.14525
-0.145443
-0.14579
0.0258411
0.0220158
0.0181147
0.0139712
0.009638
0.00512009
0.000375022
-0.00446024
-0.00952678
-0.0147271
-0.0200453
-0.0255493
-0.0312102
-0.036935
-0.0427987
-0.0488004
-0.0548105
-0.0608443
-0.0669045
-0.0729547
-0.0788953
-0.0846875
-0.0903658
-0.095856
-0.101148
-0.106086
-0.110762
-0.115136
-0.119157
-0.122826
-0.12603
-0.128854
-0.131271
-0.133261
-0.134833
-0.135962
-0.136697
-0.137049
-0.137052
-0.137203
0.0242989
0.0206571
0.0169479
0.0130064
0.00887623
0.00455974
1.90071e-05
-0.00461818
-0.00947731
-0.0144641
-0.0195615
-0.024828
-0.0302337
-0.0356938
-0.0412757
-0.0469768
-0.0526786
-0.0583957
-0.06413
-0.0698473
-0.0754566
-0.0809212
-0.0862715
-0.0914375
-0.0964114
-0.101046
-0.105426
-0.109512
-0.113256
-0.116656
-0.11961
-0.122191
-0.124375
-0.12614
-0.127498
-0.128422
-0.12896
-0.129119
-0.128932
-0.128886
0.0228437
0.0193726
0.0158441
0.0120963
0.00816421
0.00404737
-0.000289482
-0.00472784
-0.00938016
-0.014156
-0.0190375
-0.0240747
-0.029237
-0.0344455
-0.039761
-0.0451791
-0.0505914
-0.0560107
-0.0614381
-0.0668418
-0.0721379
-0.0772924
-0.0823303
-0.0871883
-0.0918568
-0.0962014
-0.100296
-0.104104
-0.107578
-0.110718
-0.113427
-0.115771
-0.117726
-0.119273
-0.120419
-0.121142
-0.121485
-0.121455
-0.121081
-0.120836
0.021475
0.0181623
0.0148026
0.011238
0.00749641
0.00357436
-0.000561701
-0.00480247
-0.00924968
-0.0138175
-0.018487
-0.0233014
-0.0282296
-0.0331977
-0.0382595
-0.0434095
-0.0485481
-0.0536863
-0.058824
-0.0639312
-0.068931
-0.0737903
-0.078532
-0.0830955
-0.0874728
-0.0915385
-0.0953593
-0.0988982
-0.102112
-0.104999
-0.10747
-0.109584
-0.111316
-0.112648
-0.113589
-0.114116
-0.114268
-0.114053
-0.113496
-0.113055
0.0201921
0.0170264
0.0138237
0.0104311
0.00687074
0.00313638
-0.000804302
-0.00485082
-0.0090961
-0.0134591
-0.0179208
-0.0225182
-0.0272199
-0.0319566
-0.036776
-0.0416708
-0.0465493
-0.0514207
-0.0562838
-0.0611102
-0.0658282
-0.0704074
-0.0748666
-0.0791497
-0.0832485
-0.0870467
-0.0906032
-0.0938838
-0.0968457
-0.09949
-0.101731
-0.103621
-0.105137
-0.106261
-0.107002
-0.107338
-0.107306
-0.106912
-0.106178
-0.105543
0.0189931
0.0159644
0.0129078
0.00967609
0.00628679
0.0027317
-0.00102049
-0.00487781
-0.00892579
-0.0130882
-0.0173465
-0.0217325
-0.0262146
-0.0307279
-0.0353142
-0.0399652
-0.0445958
-0.0492132
-0.053815
-0.0583742
-0.0628246
-0.0671367
-0.0713269
-0.0753425
-0.0791749
-0.0827164
-0.0860198
-0.0890515
-0.0917724
-0.0941819
-0.0962002
-0.0978745
-0.0991825
-0.100107
-0.100654
-0.100807
-0.100596
-0.10003
-0.0991268
-0.0983044
0.0178755
0.0149753
0.0120549
0.00897355
0.00574509
0.00236024
-0.00121128
-0.00488578
-0.00874215
-0.0127093
-0.0167691
-0.0209494
-0.0252186
-0.0295157
-0.0338775
-0.0382949
-0.0426881
-0.0470629
-0.0514157
-0.0557205
-0.0599156
-0.0639734
-0.0679072
-0.0716674
-0.0752451
-0.0785409
-0.0816013
-0.0843953
-0.0868845
-0.0890686
-0.0908734
-0.0923402
-0.0934481
-0.09418
-0.0945426
-0.0945192
-0.0941388
-0.0934083
-0.092344
-0.0913411
0.016836
0.014057
0.0112641
0.00832349
0.00524624
0.00202259
-0.00137677
-0.00487564
-0.00854704
-0.0123249
-0.0161919
-0.0201723
-0.0242352
-0.0283231
-0.0324686
-0.0366614
-0.0408273
-0.0449698
-0.0490848
-0.0531469
-0.0570989
-0.060914
-0.0646031
-0.0681195
-0.071454
-0.0745147
-0.0773431
-0.0799089
-0.0821767
-0.0841451
-0.085745
-0.0870135
-0.0879302
-0.0884783
-0.0886651
-0.0884742
-0.087933
-0.0870476
-0.0858319
-0.084657
0.0158705
0.0132066
0.0105339
0.0077254
0.0047905
0.00171915
-0.00151669
-0.00484754
-0.0083412
-0.0119364
-0.0156166
-0.0194034
-0.0232667
-0.0271524
-0.0310895
-0.0350666
-0.0390139
-0.042934
-0.0468216
-0.0506522
-0.054372
-0.0579556
-0.0614112
-0.0646949
-0.0677973
-0.0706335
-0.07324
-0.0755885
-0.0776446
-0.0794069
-0.0808118
-0.0818914
-0.0826257
-0.0830003
-0.08302
-0.0826718
-0.081979
-0.0809491
-0.079592
-0.0782561
0.0149742
0.0124206
0.00986183
0.00717806
0.00437741
0.00145001
-0.00163064
-0.00480119
-0.00812451
-0.0115439
-0.0150441
-0.0186439
-0.0223144
-0.0260051
-0.0297413
-0.0335109
-0.0372487
-0.0409557
-0.0446257
-0.048235
-0.0517333
-0.0550957
-0.0583285
-0.0613903
-0.0642714
-0.0668936
-0.0692888
-0.0714298
-0.0732847
-0.0748513
-0.0760707
-0.0769709
-0.0775337
-0.0777438
-0.0776072
-0.0771111
-0.0762776
-0.0751135
-0.0736269
-0.0721406
0.0141426
0.0116951
0.00924503
0.00667948
0.00400581
0.00121476
-0.00171858
-0.00473633
-0.00789681
-0.0111477
-0.0144746
-0.0178942
-0.0213792
-0.0248821
-0.0284249
-0.0319953
-0.035532
-0.0390347
-0.0424966
-0.0458945
-0.049181
-0.0523323
-0.0553526
-0.0582029
-0.0608734
-0.0632918
-0.0654859
-0.0674302
-0.069094
-0.0704752
-0.0715193
-0.0722506
-0.0726514
-0.0727085
-0.0724255
-0.0717924
-0.0708287
-0.0695421
-0.0679376
-0.0663145
0.0133707
0.011026
0.0086801
0.00622716
0.00367409
0.00101247
-0.00178093
-0.00465309
-0.00765815
-0.0107478
-0.0139084
-0.017155
-0.0204616
-0.0237838
-0.027141
-0.0305201
-0.0338639
-0.037171
-0.0404336
-0.0436293
-0.0467137
-0.0496635
-0.0524813
-0.0551303
-0.0576007
-0.0598255
-0.0618291
-0.0635867
-0.0650702
-0.0662764
-0.0671553
-0.0677279
-0.0679783
-0.0678919
-0.0674741
-0.0667147
-0.0656326
-0.0642349
-0.0625258
-0.0607793
0.0126538
0.0104088
0.00816339
0.00581826
0.00338014
0.00084161
-0.00181868
-0.00455219
-0.00740897
-0.0103443
-0.0133458
-0.0164267
-0.0195622
-0.0227109
-0.0258897
-0.0290854
-0.0322443
-0.0353639
-0.038436
-0.0414386
-0.0443298
-0.0470875
-0.0497125
-0.0521704
-0.0544509
-0.0564924
-0.0583155
-0.0598974
-0.0612105
-0.0622522
-0.0629766
-0.0634015
-0.063511
-0.0632933
-0.0627511
-0.061877
-0.0606882
-0.0591922
-0.0573913
-0.0555369
0.0119871
0.00983918
0.00769104
0.00544956
0.0031214
0.000700288
-0.00183331
-0.00443471
-0.00715003
-0.00993814
-0.0127873
-0.0157094
-0.018681
-0.0216633
-0.0246712
-0.0276911
-0.0306728
-0.033613
-0.0365029
-0.0393211
-0.0420282
-0.0446027
-0.0470446
-0.0493212
-0.051422
-0.0532902
-0.0549433
-0.0563591
-0.0575129
-0.0584009
-0.0589809
-0.0592684
-0.059249
-0.0589098
-0.058255
-0.0572781
-0.0559945
-0.0544129
-0.0525335
-0.0505867
0.0113664
0.00931306
0.00725919
0.00511763
0.00289502
0.000586163
-0.00182658
-0.00430202
-0.0068825
-0.00952987
-0.0122335
-0.0150036
-0.0178183
-0.0206413
-0.0234852
-0.026337
-0.0291491
-0.0319176
-0.0346335
-0.0372759
-0.0398075
-0.042208
-0.0444761
-0.046581
-0.0485121
-0.0502168
-0.0517097
-0.0529705
-0.0539747
-0.0547192
-0.0551656
-0.0553267
-0.0551883
-0.0547398
-0.0539839
-0.0529157
-0.0515497
-0.0498952
-0.0479514
-0.0459274
0.0107876
0.00882643
0.00686411
0.00481908
0.00269799
0.000496706
-0.00180057
-0.00415579
-0.00660743
-0.00912048
-0.0116848
-0.0143097
-0.0169743
-0.0196447
-0.0223319
-0.0250227
-0.0276727
-0.0302773
-0.032827
-0.0353019
-0.037667
-0.0399021
-0.0420055
-0.0439482
-0.0457193
-0.04727
-0.0486131
-0.0497281
-0.0505935
-0.0512052
-0.051528
-0.0515729
-0.0513274
-0.0507801
-0.049935
-0.0487874
-0.0473517
-0.0456369
-0.0436426
-0.0415577
0.0102471
0.00837563
0.00650223
0.00455058
0.00252732
0.000429324
-0.00175745
-0.00399754
-0.00632621
-0.00871082
-0.0111421
-0.0136282
-0.0161493
-0.0186739
-0.0212112
-0.0237482
-0.0262434
-0.0286914
-0.0310831
-0.0333988
-0.0356053
-0.037684
-0.0396317
-0.0414212
-0.0430416
-0.0444479
-0.0456503
-0.0466304
-0.0473666
-0.0478555
-0.0480653
-0.048005
-0.0476621
-0.047028
-0.0461049
-0.0448902
-0.0433968
-0.0416348
-0.0396038
-0.0374744
0.00974131
0.00795725
0.00617027
0.00430903
0.00238015
0.000381469
-0.00169919
-0.00382911
-0.00604009
-0.00830205
-0.0106063
-0.0129598
-0.0153439
-0.017729
-0.0201232
-0.0225134
-0.0248609
-0.0271601
-0.0294011
-0.0315655
-0.0336221
-0.0355524
-0.0373531
-0.0389984
-0.0404773
-0.0417484
-0.0428199
-0.0436739
-0.0442913
-0.0446677
-0.0447742
-0.0446186
-0.0441903
-0.0434796
-0.0424903
-0.04122
-0.0396813
-0.037885
-0.0358301
-0.0336719
0.00926736
0.00756826
0.00586519
0.0040915
0.00225378
0.000350845
-0.00162801
-0.00365219
-0.00575065
-0.00789544
-0.0100783
-0.0123053
-0.0145585
-0.0168106
-0.0190681
-0.0213184
-0.0235252
-0.0256825
-0.0277808
-0.0298016
-0.0317158
-0.0335062
-0.0351684
-0.0366781
-0.0380245
-0.0391693
-0.0401188
-0.0408568
-0.0413645
-0.0416381
-0.0416515
-0.0414112
-0.0409069
-0.0401313
-0.0390867
-0.0377724
-0.0362005
-0.0343818
-0.0323165
-0.030144
0.00882248
0.00720587
0.00558424
0.00389534
0.00214574
0.000335011
-0.00154586
-0.00346868
-0.00545946
-0.00749227
-0.00955918
-0.0116653
-0.0137938
-0.0159189
-0.0180462
-0.0201632
-0.0222361
-0.0242588
-0.0262212
-0.0281061
-0.029886
-0.0315441
-0.033076
-0.0344586
-0.035681
-0.0367081
-0.037545
-0.0381755
-0.0385833
-0.0387638
-0.0386935
-0.0383782
-0.037809
-0.0369781
-0.0358894
-0.0345423
-0.0329483
-0.0311195
-0.0290558
-0.0268837
0.00840429
0.00686765
0.00532496
0.00371811
0.00205361
0.000331935
-0.00145482
-0.00328031
-0.00516804
-0.00709382
-0.00905002
-0.0110409
-0.0130503
-0.0150545
-0.0170576
-0.0190479
-0.0209936
-0.0228881
-0.0247222
-0.0264786
-0.0281313
-0.029665
-0.0310745
-0.032338
-0.0334449
-0.0343627
-0.0350951
-0.0356278
-0.0359442
-0.0360409
-0.0358967
-0.0355161
-0.0348908
-0.0340156
-0.0328928
-0.0315233
-0.0299186
-0.0280902
-0.0260402
-0.0238818
0.00801057
0.00655135
0.00508511
0.00355761
0.00197545
0.000339544
-0.00135662
-0.00308875
-0.00487784
-0.0067013
-0.00855178
-0.0104326
-0.0123286
-0.0142174
-0.0161027
-0.0179725
-0.0197973
-0.0215707
-0.0232828
-0.0249177
-0.026451
-0.0278675
-0.029162
-0.0303143
-0.0313137
-0.0321303
-0.0327671
-0.0332096
-0.033444
-0.0334659
-0.0332563
-0.0328194
-0.0321485
-0.0312376
-0.0300907
-0.028709
-0.0271033
-0.0252864
-0.02326
-0.0211283
0.00763946
0.00625506
0.00486273
0.003412
0.00190925
0.000356116
-0.00125302
-0.00289557
-0.00459022
-0.00631588
-0.0080654
-0.00984137
-0.0116293
-0.0134085
-0.0151814
-0.0169369
-0.0186471
-0.0203055
-0.0219027
-0.0234229
-0.0248433
-0.02615
-0.027337
-0.0283855
-0.0292851
-0.0300084
-0.030557
-0.0309184
-0.0310786
-0.031034
-0.030768
-0.0302839
-0.0295752
-0.0286384
-0.0274764
-0.0260915
-0.0244946
-0.0226981
-0.0207058
-0.0186112
0.00728918
0.00597699
0.00465607
0.00327939
0.00185336
0.000379884
-0.00114562
-0.00270222
-0.00430645
-0.00593861
-0.00759176
-0.00926777
-0.0109529
-0.0126276
-0.014294
-0.0159409
-0.0175426
-0.0190923
-0.0205806
-0.0219927
-0.0233074
-0.0245109
-0.0255976
-0.0265494
-0.0273567
-0.0279941
-0.0284626
-0.0287499
-0.0288442
-0.0287415
-0.0284268
-0.0279033
-0.0271661
-0.026211
-0.0250424
-0.023663
-0.0220831
-0.0203164
-0.0183659
-0.0163185
0.00695825
0.00571559
0.0044635
0.00315828
0.00180608
0.00040932
-0.00103586
-0.00251
-0.00402768
-0.00557048
-0.00713165
-0.00871238
-0.0102996
-0.0118752
-0.0134403
-0.0149844
-0.0164833
-0.0179301
-0.0193159
-0.0206264
-0.0218415
-0.0229486
-0.0239416
-0.0248039
-0.0255259
-0.0260844
-0.0264798
-0.0267012
-0.0267365
-0.026583
-0.0262275
-0.0256726
-0.0249137
-0.0239488
-0.0227812
-0.0214148
-0.0198601
-0.0181298
-0.0162296
-0.014237
0.00664521
0.00546943
0.00428362
0.00304716
0.00176617
0.000443117
-0.000924973
-0.00232005
-0.00375491
-0.00521234
-0.00668575
-0.00817572
-0.00966987
-0.0111512
-0.0126204
-0.014067
-0.0154686
-0.0168185
-0.0181075
-0.0193224
-0.0204445
-0.0214613
-0.0223672
-0.0231465
-0.0237899
-0.0242763
-0.0246058
-0.0247674
-0.0247514
-0.0245544
-0.0241648
-0.0235853
-0.0228126
-0.021844
-0.0206846
-0.0193383
-0.0178151
-0.0161289
-0.0142846
-0.0123547
0.00634888
0.0052373
0.00411527
0.00294504
0.00173237
0.000480196
-0.000813984
-0.00213334
-0.00348901
-0.00486491
-0.00625461
-0.00765819
-0.00906385
-0.0104558
-0.0118338
-0.0131884
-0.0144982
-0.0157563
-0.0169545
-0.0180797
-0.0191144
-0.0200472
-0.0208722
-0.0215748
-0.0221461
-0.0225669
-0.0228364
-0.0229456
-0.0228843
-0.0226501
-0.0222333
-0.0216359
-0.0208549
-0.0198899
-0.0187447
-0.0174243
-0.015939
-0.0143017
-0.0125197
-0.0106581
0.0060681
0.0050182
0.0039574
0.00285071
0.00170384
0.000519532
-0.000703853
-0.00195073
-0.00323074
-0.00452881
-0.00583872
-0.00716012
-0.00848174
-0.0097887
-0.0110807
-0.012348
-0.0135711
-0.0147431
-0.0158556
-0.0168967
-0.0178501
-0.0187045
-0.0194544
-0.0200863
-0.0205916
-0.0209527
-0.0211688
-0.0212308
-0.0211308
-0.0208658
-0.0204274
-0.0198178
-0.0190352
-0.0180785
-0.0169532
-0.0156642
-0.0142214
-0.0126387
-0.0109223
-0.00913398
0.00580196
0.00481105
0.00380903
0.00276338
0.00167937
0.000560213
-0.000595403
-0.00177295
-0.0029807
-0.00420456
-0.00543849
-0.00668172
-0.00792354
-0.00915016
-0.0103605
-0.0115455
-0.0126867
-0.0137775
-0.0148099
-0.0157723
-0.0166494
-0.0174311
-0.0181116
-0.0186784
-0.0191234
-0.0194305
-0.0195986
-0.01962
-0.0194863
-0.019196
-0.0187418
-0.0181256
-0.0173457
-0.0164031
-0.0153022
-0.0140489
-0.0126534
-0.0111282
-0.00948175
-0.00776965
0.00554943
0.00461502
0.00366922
0.00268191
0.00165832
0.000601435
-0.000489365
-0.00160064
-0.00273943
-0.00389257
-0.0050542
-0.00622317
-0.00738932
-0.00853961
-0.00967294
-0.0107802
-0.0118443
-0.0128588
-0.0138159
-0.0147047
-0.0155111
-0.0162251
-0.0168415
-0.0173485
-0.0177386
-0.0179971
-0.0181228
-0.018108
-0.0179465
-0.0176362
-0.0171707
-0.0165524
-0.0157807
-0.0148558
-0.0137837
-0.0125701
-0.0112247
-0.009761
-0.00818594
-0.00655296
0.00530975
0.0044292
0.0035372
0.0026058
0.0016398
0.000642564
-0.000386313
-0.0014343
-0.00250736
-0.00359316
-0.00468603
-0.00578449
-0.00687889
-0.00795711
-0.00901741
-0.0100514
-0.011043
-0.0119857
-0.0128725
-0.0136926
-0.0144329
-0.0150844
-0.0156417
-0.016094
-0.0164343
-0.0166491
-0.016737
-0.0166918
-0.0165067
-0.0161809
-0.015709
-0.0150931
-0.0143328
-0.0134301
-0.01239
-0.0112191
-0.009927
-0.00852584
-0.00702483
-0.00547218
0.00508205
0.004253
0.00341235
0.00253423
0.00162344
0.000683056
-0.000286736
-0.00127437
-0.00228481
-0.00330655
-0.00433409
-0.00536568
-0.00639213
-0.00740201
-0.0083936
-0.00935844
-0.0102818
-0.0111574
-0.0119781
-0.0127342
-0.0134134
-0.0140068
-0.0145098
-0.0149122
-0.0152074
-0.0153831
-0.0154382
-0.0153662
-0.0151625
-0.0148255
-0.0143508
-0.0137409
-0.0129964
-0.0121184
-0.0111134
-0.00998762
-0.00875025
-0.00741413
-0.00598685
-0.00451583
0.00486584
0.00408575
0.00329407
0.00246689
0.00160854
0.000722474
-0.000191013
-0.00112115
-0.00207201
-0.00303287
-0.00399838
-0.00496657
-0.00592871
-0.00687418
-0.00780065
-0.00870057
-0.00955982
-0.0103724
-0.0111317
-0.0118281
-0.0124503
-0.0129904
-0.0134435
-0.0138004
-0.0140549
-0.0141959
-0.014222
-0.0141282
-0.0139091
-0.0135647
-0.0130912
-0.0124907
-0.0117641
-0.0109142
-0.00994638
-0.00886736
-0.00768645
-0.00641494
-0.00506246
-0.00367229
0.00466031
0.00392691
0.00318187
0.00240304
0.00159484
0.000760413
-9.94768e-05
-0.000974888
-0.00186913
-0.00277216
-0.00367885
-0.004587
-0.00548835
-0.00637281
-0.00723823
-0.00807694
-0.00887603
-0.00962979
-0.0103314
-0.0109724
-0.011542
-0.0120328
-0.0124402
-0.0127558
-0.0129737
-0.0130839
-0.0130853
-0.0129726
-0.0127425
-0.012394
-0.0119243
-0.011336
-0.0106306
-0.0098103
-0.0088815
-0.00785057
-0.0067262
-0.00552038
-0.00424093
-0.00293113
0.00446499
0.00377585
0.00307512
0.00234243
0.00158176
0.000796561
-1.23615e-05
-0.000835756
-0.00167623
-0.00252442
-0.00337535
-0.00422669
-0.00507059
-0.00589766
-0.00670535
-0.00748668
-0.00822942
-0.00892797
-0.00957617
-0.0101656
-0.0106864
-0.0111319
-0.0114975
-0.0117757
-0.0119608
-0.012044
-0.0120238
-0.0118964
-0.0116578
-0.0113082
-0.0108453
-0.0102717
-0.00958888
-0.00880042
-0.00791162
-0.0069293
-0.0058621
-0.00472041
-0.00351398
-0.00228242
0.00427911
0.00363204
0.00297342
0.00228443
0.00156915
0.000830653
7.01467e-05
-0.000703849
-0.00149332
-0.00228955
-0.0030877
-0.00388534
-0.00467501
-0.00544787
-0.00620151
-0.00692884
-0.00761879
-0.00826594
-0.0088641
-0.00940571
-0.00988171
-0.0102854
-0.010613
-0.0108573
-0.0110132
-0.0110726
-0.0110344
-0.0108947
-0.010651
-0.0103029
-0.00984886
-0.00929176
-0.00863383
-0.00787769
-0.00702982
-0.00609642
-0.0050855
-0.00400814
-0.002872
-0.00171711
0.00410232
0.00349502
0.00287632
0.00222897
0.00155658
0.000862529
0.000147964
-0.000579179
-0.00132034
-0.00206737
-0.00281563
-0.00356254
-0.00430107
-0.00502306
-0.00572563
-0.00640249
-0.00704305
-0.00764206
-0.00819393
-0.0086913
-0.00912566
-0.0094913
-0.00978423
-0.00999795
-0.0101278
-0.0101666
-0.010113
-0.00996439
-0.00971751
-0.00937312
-0.00893019
-0.00839134
-0.00775871
-0.00703637
-0.0062295
-0.0053447
-0.00438989
-0.00337451
-0.00230799
-0.00122716
0.00393402
0.00336445
0.00278359
0.00217557
0.00154407
0.000892073
0.00022105
-0.000461697
-0.00115714
-0.00185766
-0.00255878
-0.00325786
-0.00394826
-0.00462223
-0.00527713
-0.00590657
-0.00650093
-0.00705526
-0.00756391
-0.00802028
-0.0084166
-0.0087472
-0.00900861
-0.00919489
-0.00930173
-0.00932262
-0.00925667
-0.00910082
-0.00885352
-0.00851484
-0.0080842
-0.00756466
-0.00695899
-0.00627015
-0.00550443
-0.00466775
-0.00376742
-0.0028135
-0.00181328
-0.000804276
0.00377399
0.00323999
0.00269492
0.00212428
0.00153133
0.000919256
0.000289451
-0.000351288
-0.00100351
-0.00166011
-0.00231676
-0.00297078
-0.00361589
-0.00424488
-0.00485485
-0.00544004
-0.00599131
-0.00650385
-0.00697265
-0.00739116
-0.00775224
-0.00805094
-0.00828381
-0.00844546
-0.008532
-0.00853759
-0.00846129
-0.00830107
-0.00805469
-0.00772323
-0.00730655
-0.00680745
-0.00622846
-0.0055739
-0.00484872
-0.0040592
-0.00321251
-0.00231717
-0.001382
-0.000441803
0.00362173
0.00312139
0.00261017
0.00207475
0.00151845
0.00094406
0.00035323
-0.000247797
-0.000859202
-0.00147437
-0.00208912
-0.00270075
-0.0033033
-0.00388997
-0.00445808
-0.00500179
-0.00551288
-0.00598676
-0.00641836
-0.00680193
-0.0071309
-0.00740036
-0.00760742
-0.00774705
-0.00781576
-0.00780832
-0.00772407
-0.00756069
-0.0073174
-0.00699463
-0.00659255
-0.00611435
-0.00556311
-0.00494196
-0.00425691
-0.00351351
-0.00271835
-0.00188053
-0.00100679
-0.000132905
0.00347703
0.00300836
0.00252907
0.00202705
0.0015052
0.000966516
0.0004125
-0.000151032
-0.000723941
-0.00130006
-0.00187537