/*--------------------------------*- C++ -*----------------------------------*\
| =========                 |                                                 |
| \\      /  F ield         | OpenFOAM: The Open Source CFD Toolbox           |
|  \\    /   O peration     | Version:  3.0.1                                 |
|   \\  /    A nd           | Web:      www.OpenFOAM.org                      |
|    \\/     M anipulation  |                                                 |
\*---------------------------------------------------------------------------*/
FoamFile
{
    version     2.0;
    format      ascii;
    class       surfaceScalarField;
    location    "50";
    object      phi;
}
// * * * * * * * * * * * * * * * * * * * * * * * * * * * * * * * * * * * * * //

dimensions      [0 3 -1 0 0 0 0];

internalField   nonuniform List<scalar> 
115520
(
0.00836781
-0.00241198
-0.00595582
0.0100367
-0.00166886
0.0108507
-0.000813997
0.0111428
-0.000292145
0.0111495
-6.70424e-06
0.0110029
0.00014658
0.0108391
0.000163831
0.0106766
0.000162464
0.0105704
0.000106256
0.0105316
3.87242e-05
0.0105335
-1.86344e-06
0.010575
-4.14954e-05
0.010665
-8.99515e-05
0.0107746
-0.000109613
0.0108932
-0.000118624
0.0110265
-0.000133352
0.0111723
-0.000145795
0.0113189
-0.000146608
0.0114618
-0.000142825
0.0116042
-0.000142444
0.0117509
-0.000146679
0.0118932
-0.000142383
0.0120286
-0.000135305
0.0121544
-0.000125913
0.0122802
-0.000125756
0.0124006
-0.000120418
0.0125136
-0.000113012
0.0126181
-0.00010442
0.0127127
-9.45829e-05
0.0128041
-9.13975e-05
0.0128883
-8.42567e-05
0.0129649
-7.66223e-05
0.0130341
-6.91636e-05
0.0130962
-6.20543e-05
0.0131419
-4.57226e-05
0.0131453
-3.42844e-06
0.0131288
1.64781e-05
0.0131171
1.16974e-05
0.0131374
-2.02712e-05
-8.094e-05
0.0132183
0.00476085
-0.00371926
-0.00345358
0.00598951
-0.00289752
0.00712613
-0.00195062
0.00806166
-0.00122768
0.00880515
-0.000750189
0.00936371
-0.00041198
0.00976595
-0.000238415
0.0100398
-0.000111402
0.0102365
-9.04501e-05
0.0103899
-0.000114632
0.0105097
-0.000121698
0.0106281
-0.000159916
0.0107657
-0.000227491
0.0109033
-0.000247265
0.0110428
-0.000258121
0.0112003
-0.000290853
0.0113664
-0.000311864
0.0115316
-0.000311829
0.0116944
-0.000305612
0.0118616
-0.000309635
0.0120318
-0.00031692
0.0121964
-0.000307
0.0123546
-0.000293495
0.0125052
-0.000276543
0.0126585
-0.000278968
0.0128043
-0.00026628
0.0129419
-0.000250561
0.0130706
-0.000233205
0.0131902
-0.000214096
0.0133079
-0.00020909
0.0134167
-0.000193063
0.013516
-0.000175967
0.0136052
-0.00015836
0.0136833
-0.000140148
0.013752
-0.000114392
0.013809
-6.04337e-05
0.0138577
-3.22505e-05
0.0139039
-3.44878e-05
0.0139531
-6.94509e-05
-0.000139259
0.0140114
0.00404899
-0.00471657
-0.00305168
0.0050396
-0.00388813
0.00603395
-0.00294497
0.00695464
-0.00214837
0.00778982
-0.00158536
0.00851769
-0.00113985
0.00910819
-0.000828918
0.00960461
-0.000607823
0.00999656
-0.000482405
0.0103122
-0.00043031
0.0105713
-0.000380729
0.0107907
-0.000379371
0.0109915
-0.000428224
0.011177
-0.000432782
0.0113532
-0.000434326
0.0115324
-0.000470126
0.0117125
-0.000491907
0.0118897
-0.000489021
0.0120641
-0.000480059
0.0122402
-0.000485718
0.0124167
-0.000493405
0.0125883
-0.000478643
0.0127547
-0.000459858
0.0129151
-0.000436952
0.0130751
-0.000438931
0.0132282
-0.000419386
0.0133738
-0.00039622
0.0135117
-0.000371101
0.0136415
-0.000343848
0.0137669
-0.000334476
0.0138835
-0.000309691
0.0139911
-0.00028355
0.0140892
-0.000256469
0.0141772
-0.000228195
0.0142563
-0.000193487
0.0143255
-0.00012965
0.0143859
-9.26536e-05
0.0144403
-8.88111e-05
0.0144887
-0.000117922
-0.000179885
0.0145294
0.00371614
-0.00555766
-0.00287505
0.00455827
-0.00473026
0.0054148
-0.0038015
0.00624791
-0.00298148
0.007053
-0.00239046
0.00780933
-0.00189618
0.00847599
-0.00149557
0.00908279
-0.00121463
0.00960022
-0.000999833
0.0100429
-0.000873025
0.0104263
-0.000764072
0.0107551
-0.000708183
0.0110438
-0.000716941
0.0113031
-0.000692062
0.0115396
-0.000670797
0.0117647
-0.000695308
0.0119812
-0.000708389
0.0121886
-0.000696387
0.0123884
-0.000679873
0.0125857
-0.000682991
0.0127804
-0.000688151
0.0129686
-0.000666827
0.0131501
-0.000641396
0.0133248
-0.000611604
0.0134978
-0.000611975
0.0136634
-0.000585003
0.0138211
-0.00055387
0.0139706
-0.000520579
0.0141116
-0.00048492
0.0142478
-0.000470663
0.0143749
-0.000436747
0.0144925
-0.000401177
0.0146004
-0.000364404
0.0146984
-0.00032617
0.0147878
-0.000282842
0.0148676
-0.000209472
0.0149378
-0.000162849
0.0149992
-0.000150251
0.0150516
-0.000170301
-0.000221313
0.015093
0.00357997
-0.00632421
-0.00281341
0.00434586
-0.00549615
0.00512266
-0.0045783
0.00588958
-0.00374839
0.00664892
-0.0031498
0.00738837
-0.00263563
0.00807155
-0.00217876
0.00872217
-0.00186524
0.00930518
-0.00158284
0.00982625
-0.0013941
0.0102968
-0.00123462
0.0107124
-0.00112376
0.0110793
-0.00108383
0.0114108
-0.00102357
0.0117117
-0.000971728
0.0119895
-0.00097315
0.0122501
-0.000968906
0.0124955
-0.000941835
0.0127282
-0.000912597
0.0129529
-0.000907662
0.0131708
-0.000906066
0.0133798
-0.000875822
0.0135802
-0.000841818
0.0137722
-0.000803627
0.0139603
-0.000800065
0.01414
-0.000764692
0.0143109
-0.000724762
0.0144729
-0.000682563
0.0146259
-0.00063788
0.0147727
-0.000617527
0.0149099
-0.000573971
0.0150373
-0.000528493
0.0151545
-0.000481628
0.0152615
-0.000433147
0.0153593
-0.000380679
0.0154471
-0.000297268
0.0155243
-0.000240106
0.0155912
-0.000217094
0.0156472
-0.000226291
-0.000265407
0.0156913
0.0035353
-0.00705185
-0.00280766
0.00426091
-0.00622176
0.00499327
-0.00531067
0.0057195
-0.00447463
0.00644436
-0.00387466
0.00716136
-0.00335263
0.00784204
-0.00285944
0.00850646
-0.00252967
0.00912204
-0.00219842
0.00968977
-0.00196182
0.010218
-0.00176288
0.0106974
-0.0016031
0.0111277
-0.00151418
0.0115222
-0.00141801
0.0118831
-0.00133269
0.0122137
-0.00130371
0.0125207
-0.00127593
0.0128079
-0.00122901
0.0130777
-0.00118242
0.0133341
-0.00116408
0.0135794
-0.00115133
0.0138129
-0.0011094
0.0140355
-0.00106443
0.0142477
-0.00101578
0.0144532
-0.00100558
0.0146489
-0.00096041
0.0148347
-0.000910492
0.0150104
-0.000858313
0.0151762
-0.000803626
0.0153344
-0.000775792
0.0154823
-0.000721831
0.0156195
-0.000665744
0.015746
-0.000608132
0.0158617
-0.000548782
0.0159673
-0.000486354
0.0160622
-0.000392104
0.0161455
-0.000323467
0.0162173
-0.00028886
0.0162771
-0.000286072
-0.000312607
0.0163243
0.00354542
-0.00776162
-0.00283565
0.00425181
-0.00692815
0.00496147
-0.00602032
0.00566566
-0.00517882
0.00636966
-0.00457867
0.00707027
-0.00405324
0.00774576
-0.00353493
0.00841356
-0.00319746
0.00904588
-0.00283075
0.00964188
-0.00255783
0.0102081
-0.00232908
0.0107331
-0.00212813
0.0112129
-0.00199393
0.011659
-0.0018642
0.0120721
-0.00174579
0.0124514
-0.00168294
0.0128034
-0.00162797
0.0131324
-0.001558
0.0134405
-0.00149056
0.0137308
-0.00145429
0.0140058
-0.00142634
0.0142663
-0.00136997
0.0145134
-0.0013115
0.0147478
-0.00125014
0.0149726
-0.00123042
0.015186
-0.00117378
0.0153879
-0.00111242
0.0155785
-0.00104893
0.0157579
-0.000983029
0.0159283
-0.000946151
0.0160873
-0.000880816
0.0162347
-0.000813217
0.0163706
-0.000744002
0.0164948
-0.000672948
0.016608
-0.000599568
0.0167094
-0.000493555
0.0167985
-0.000412514
0.0168749
-0.000365317
0.0169385
-0.00034963
-0.000362919
0.0169888
0.00359036
-0.00846644
-0.00288554
0.00429077
-0.00762856
0.00499181
-0.00672136
0.00568711
-0.00587412
0.00638169
-0.00527325
0.00707404
-0.00474559
0.0077475
-0.00420839
0.00841717
-0.00386713
0.00906018
-0.00347377
0.00967521
-0.00317286
0.0102677
-0.00292154
0.0108261
-0.00268656
0.0113443
-0.00251211
0.0118324
-0.00235228
0.0122894
-0.00220283
0.0127118
-0.00210534
0.0131054
-0.00202157
0.0134743
-0.00192684
0.01382
-0.00183628
0.0141443
-0.00177862
0.0144501
-0.0017321
0.0147389
-0.0016588
0.0150118
-0.00158446
0.0152698
-0.00150812
0.0155154
-0.00147598
0.0157477
-0.00140608
0.0159669
-0.00133167
0.0161734
-0.00125539
0.0163672
-0.00117689
0.0165504
-0.00112927
0.016721
-0.00105144
0.016879
-0.000971268
0.0170245
-0.000889437
0.0171572
-0.000805695
0.0172779
-0.000720268
0.0173859
-0.000601502
0.0174805
-0.000507118
0.0175616
-0.000446398
0.0176289
-0.000416957
-0.000416288
0.0176822
0.00365891
-0.00917492
-0.00295043
0.00436224
-0.00833189
0.00506426
-0.00742338
0.00576001
-0.00656988
0.00645399
-0.00596723
0.00714554
-0.00543713
0.00782162
-0.00488447
0.0084953
-0.00454081
0.0091479
-0.00412637
0.00977816
-0.00380311
0.0103908
-0.00353415
0.0109751
-0.0032709
0.0115241
-0.00306114
0.0120465
-0.00287469
0.0125406
-0.00269687
0.0130008
-0.00256554
0.013432
-0.00245276
0.0138378
-0.00233264
0.0142192
-0.00221768
0.0145768
-0.00213624
0.0149132
-0.00206852
0.0152306
-0.00197623
0.0155301
-0.00188391
0.0158125
-0.00179051
0.0160797
-0.00174323
0.0163319
-0.00165825
0.0165694
-0.00156913
0.0167924
-0.00147848
0.0170015
-0.0013859
0.017198
-0.00132578
0.0173807
-0.00123419
0.0175497
-0.00114028
0.017705
-0.00104471
0.0178465
-0.000947188
0.0179748
-0.000848546
0.0180893
-0.000715988
0.0181894
-0.000607299
0.0182752
-0.00053212
0.0183463
-0.000488057
-0.000472655
0.0184026
0.00374443
-0.00989316
-0.00302619
0.00445696
-0.00904442
0.00516675
-0.00813318
0.00586975
-0.00727288
0.00656985
-0.00666733
0.00726678
-0.00613407
0.00795011
-0.0055678
0.00863112
-0.00522182
0.00929448
-0.00478973
0.00993915
-0.00444778
0.0105693
-0.00416431
0.0111755
-0.00387708
0.0117506
-0.00363625
0.0123021
-0.00342617
0.0128278
-0.00322259
0.0133213
-0.003059
0.0137863
-0.00291778
0.014226
-0.00277232
0.0146407
-0.00263247
0.0150302
-0.00252571
0.0153966
-0.0024349
0.0157423
-0.00232198
0.0160683
-0.0022099
0.0163754
-0.00209763
0.0166649
-0.00203272
0.0169376
-0.00193091
0.0171939
-0.00182542
0.0174342
-0.00171881
0.0176589
-0.00161063
0.0178694
-0.0015362
0.0180647
-0.00142955
0.0182451
-0.00132063
0.0184105
-0.00121011
0.0185609
-0.00109765
0.018697
-0.000984571
0.0188181
-0.000837138
0.0189239
-0.000713142
0.0190144
-0.000622538
0.0190893
-0.000562945
-0.000531959
0.0191486
0.00384286
-0.0106257
-0.00311033
0.00456927
-0.00977084
0.00529187
-0.00885577
0.00600718
-0.00798818
0.00671853
-0.00737868
0.00742583
-0.00684136
0.00812051
-0.00626248
0.00881232
-0.00591363
0.00948851
-0.00546593
0.0101483
-0.00510756
0.0107954
-0.00481145
0.0114216
-0.00450325
0.0120201
-0.00423473
0.0125973
-0.00400338
0.013151
-0.00377628
0.0136742
-0.00358221
0.0141699
-0.0034135
0.0146407
-0.00324315
0.0150866
-0.00307834
0.0155063
-0.00294541
0.0159016
-0.00283019
0.016275
-0.00269538
0.0166272
-0.00256211
0.016959
-0.00242939
0.0172709
-0.00234467
0.0175644
-0.0022244
0.0178399
-0.00210096
0.018098
-0.00197684
0.0183388
-0.00185152
0.0185636
-0.001761
0.018772
-0.00163792
0.0189641
-0.00151268
0.0191399
-0.00138595
0.0192996
-0.00125732
0.0194435
-0.00112854
0.0195715
-0.000965103
0.0196831
-0.000824753
0.0197783
-0.000717711
0.019857
-0.00064162
-0.000594122
0.0199191
0.00395166
-0.0113761
-0.00320129
0.00469561
-0.0105148
0.00543489
-0.00959506
0.00616645
-0.00871974
0.00689308
-0.00810532
0.00761476
-0.00756303
0.00832429
-0.00697202
0.00903011
-0.00661945
0.00972148
-0.0061573
0.0103978
-0.00578387
0.0110624
-0.00547607
0.0117081
-0.00514896
0.0123287
-0.0048553
0.0129297
-0.0046044
0.013509
-0.00435554
0.0140594
-0.00413269
0.0145835
-0.00393751
0.0150831
-0.00374284
0.0155581
-0.00355328
0.0160064
-0.00339376
0.0164295
-0.00325325
0.0168297
-0.00309561
0.0172076
-0.00294
0.0175637
-0.00278551
0.0178982
-0.00267909
0.0182126
-0.00253887
0.0185076
-0.00239598
0.0187836
-0.00225284
0.019041
-0.0021089
0.0192806
-0.00200054
0.0195023
-0.00185964
0.0197064
-0.00171675
0.0198929
-0.0015725
0.020062
-0.00142644
0.0202142
-0.00128065
0.0203491
-0.00110003
0.0204666
-0.000942232
0.0205665
-0.000817683
0.020649
-0.000724057
-0.00065903
0.0207139
0.00406925
-0.0121472
-0.00329811
0.00483369
-0.0112792
0.0055928
-0.0103542
0.00634377
-0.00947072
0.00708896
-0.00885051
0.00782831
-0.00830238
0.00855568
-0.00769939
0.00927837
-0.00734214
0.00998722
-0.00686615
0.0106817
-0.00647838
0.0113649
-0.00615926
0.0120305
-0.00581454
0.0126728
-0.00549761
0.0132967
-0.00522833
0.0139002
-0.00495898
0.0144763
-0.00470883
0.0150269
-0.0044881
0.0155537
-0.00426967
0.0160561
-0.00405565
0.0165317
-0.00386939
0.0169815
-0.00370301
0.0174077
-0.00352182
0.0178107
-0.00334295
0.0181907
-0.00316559
0.0185475
-0.00303586
0.0188829
-0.00287431
0.0191975
-0.00271058
0.0194917
-0.002547
0.0197658
-0.002383
0.0200204
-0.00225511
0.0202557
-0.00209501
0.0204721
-0.00193311
0.0206696
-0.00177001
0.0208484
-0.00160521
0.0210088
-0.00144108
0.0211508
-0.00124206
0.0212743
-0.00106565
0.021379
-0.000922464
0.0214652
-0.000810188
-0.00072652
0.0215327
0.00419463
-0.0129416
-0.00340024
0.00498209
-0.0120667
0.00576365
-0.0111357
0.0065367
-0.0102438
0.00730318
-0.00961699
0.00806297
-0.00906217
0.00881075
-0.00844717
0.00955285
-0.00808424
0.0102813
-0.00759464
0.0109958
-0.00719284
0.0116989
-0.00686238
0.0123852
-0.0065008
0.0130495
-0.00616189
0.0136961
-0.00587493
0.0143231
-0.00558598
0.0149239
-0.0053097
0.0155
-0.00506418
0.0160528
-0.00482243
0.0165813
-0.00458422
0.0170831
-0.00437119
0.0175587
-0.00417855
0.0180101
-0.00397325
0.0184375
-0.00377035
0.0188411
-0.00356917
0.01922
-0.00341475
0.0195763
-0.00323063
0.0199105
-0.00304478
0.0202229
-0.00285941
0.0205139
-0.00267396
0.0207837
-0.00252492
0.0210329
-0.00234424
0.0212617
-0.00216197
0.0214704
-0.00197866
0.021659
-0.0017938
0.0218279
-0.00160996
0.0219771
-0.00139128
0.0221065
-0.00119505
0.0222161
-0.00103202
0.0223058
-0.00089989
-0.00079637
0.0223756
0.0043272
-0.0137615
-0.00350732
0.00513991
-0.0128794
0.00594621
-0.011942
0.00674364
-0.0110412
0.00753378
-0.0104071
0.00831643
-0.00984482
0.00908689
-0.00921763
0.00985066
-0.00884802
0.0106008
-0.00834478
0.0113369
-0.00792897
0.0120615
-0.00758689
0.0127695
-0.00720881
0.0134563
-0.00684875
0.0141259
-0.00654447
0.0147763
-0.0062364
0.0154015
-0.00593488
0.0160024
-0.00566513
0.0165803
-0.00540037
0.0171343
-0.00513815
0.0176614
-0.00489835
0.0181621
-0.00467917
0.0186381
-0.00444926
0.0190894
-0.00422166
0.019516
-0.00399584
0.0199168
-0.00381554
0.0202939
-0.00360771
0.0206476
-0.00339851
0.0209783
-0.00319008
0.0212862
-0.00298184
0.0215714
-0.0028101
0.0218346
-0.00260749
0.0220761
-0.00240348
0.0222961
-0.0021986
0.0224946
-0.00199233
0.022672
-0.00178738
0.0228285
-0.00154773
0.0229638
-0.00133041
0.0230781
-0.00114625
0.0231712
-0.000992981
-0.000868287
0.0232431
0.00446659
-0.0146089
-0.00361917
0.00530658
-0.0137194
0.00613969
-0.0127751
0.00696358
-0.0118651
0.00777949
-0.011223
0.00858716
-0.0106525
0.00938235
-0.0100128
0.0101699
-0.00963554
0.0109436
-0.00911847
0.0117031
-0.00868847
0.0124505
-0.00833429
0.0131814
-0.00793977
0.0138917
-0.00755906
0.0145848
-0.00723751
0.0152589
-0.00691051
0.0159083
-0.00658433
0.0165339
-0.00629071
0.0171366
-0.00600307
0.0177154
-0.00571692
0.0182674
-0.00545035
0.0187926
-0.00520437
0.0192927
-0.00494938
0.0197675
-0.00469646
0.0202169
-0.00444524
0.0206393
-0.004238
0.021037
-0.0040054
0.0214102
-0.0037717
0.0217591
-0.00353898
0.022084
-0.00330668
0.0223846
-0.00311076
0.022662
-0.00288486
0.0229163
-0.00265775
0.0231476
-0.00242993
0.0233561
-0.00220087
0.0235422
-0.0019734
0.0237058
-0.00171141
0.0238471
-0.00147167
0.0239659
-0.00126502
0.0240621
-0.00108921
-0.000941909
0.0241357
0.00461256
-0.0154858
-0.00373567
0.00548175
-0.0145886
0.00634362
-0.013637
0.00719589
-0.0127174
0.00803953
-0.0120667
0.00887418
-0.0114871
0.00969601
-0.0108347
0.0105092
-0.0104487
0.0113082
-0.00991751
0.0120927
-0.00947297
0.0128645
-0.00910609
0.0136197
-0.00869497
0.0143545
-0.00829383
0.0150718
-0.00795481
0.0157701
-0.00760884
0.0164442
-0.00725835
0.0170945
-0.006941
0.0177218
-0.00663046
0.0183252
-0.00632032
0.0189018
-0.00602689
0.0194512
-0.00575382
0.0199751
-0.00547328
0.0204731
-0.00519445
0.020945
-0.0049171
0.0213889
-0.00468196
0.0218071
-0.00442357
0.0221997
-0.00416428
0.0225668
-0.00390608
0.0229085
-0.00364847
0.0232247
-0.00342695
0.0235163
-0.00317641
0.0237834
-0.00292483
0.0240261
-0.0026727
0.0242447
-0.00241944
0.0244393
-0.002168
0.0246102
-0.00188227
0.0247572
-0.00161869
0.0248803
-0.0013881
0.0249794
-0.00118828
-0.00101681
0.0250543
0.00476499
-0.016394
-0.00385677
0.00566522
-0.0154888
0.00655769
-0.0145295
0.00744018
-0.0135998
0.0083134
-0.0129399
0.0091769
-0.0123506
0.0100272
-0.0116849
0.0108679
-0.0112894
0.011694
-0.0107436
0.0125051
-0.0102841
0.0133028
-0.0099038
0.0140836
-0.00947575
0.0148439
-0.00905417
0.0155864
-0.00869733
0.0163097
-0.00833212
0.0170088
-0.00795745
0.0176841
-0.00761633
0.0183363
-0.00728269
0.0189644
-0.00694836
0.0195654
-0.0066279
0.020139
-0.0063274
0.0206865
-0.0060208
0.0212075
-0.00571544
0.0217016
-0.00541124
0.022167
-0.0051473
0.0226055
-0.00486213
0.0230174
-0.00457617
0.0234027
-0.00429133
0.0237614
-0.00400719
0.0240931
-0.00375868
0.0243989
-0.00348217
0.0246788
-0.00320476
0.024933
-0.00292691
0.0251616
-0.00264803
0.0253648
-0.00237114
0.0255427
-0.00206021
0.0256953
-0.0017713
0.0258225
-0.00151525
0.025924
-0.00128981
-0.0010925
0.0259997
0.00492382
-0.0173354
-0.00398243
0.0058569
-0.0164219
0.00678176
-0.0154543
0.00769625
-0.0145143
0.00860083
-0.0138445
0.00949498
-0.0132448
0.0103755
-0.0125654
0.0112454
-0.0121593
0.0121002
-0.0115984
0.0129395
-0.0111234
0.0137646
-0.0107289
0.0145724
-0.0102835
0.0153595
-0.00984126
0.0161283
-0.00946611
0.0168774
-0.00908124
0.0176022
-0.00868232
0.0183031
-0.00831722
0.0189806
-0.00796015
0.0196335
-0.00760127
0.0202591
-0.0072535
0.0208569
-0.00692518
0.021428
-0.00659193
0.0219719
-0.00625939
0.0224883
-0.00592758
0.022975
-0.00563398
0.0234339
-0.00532104
0.023865
-0.00500733
0.0242684
-0.00469471
0.024644
-0.00438281
0.0249913
-0.00410596
0.0253113
-0.00380213
0.025604
-0.00349751
0.0258696
-0.00319251
0.0261082
-0.00288656
0.0263197
-0.00258271
0.0265046
-0.00224506
0.0266626
-0.00192928
0.0267935
-0.00164615
0.0268971
-0.00139339
-0.00116843
0.026973
0.00508904
-0.0183117
-0.00411268
0.00605676
-0.0173896
0.00701579
-0.0164134
0.00796403
-0.0154626
0.00890172
-0.0147822
0.00982828
-0.0141714
0.0107406
-0.0134778
0.0116415
-0.0130602
0.0125268
-0.0124837
0.0133958
-0.0119925
0.0142499
-0.011583
0.015086
-0.0111196
0.0159011
-0.0106564
0.0166973
-0.0102623
0.0174732
-0.00985719
0.0182247
-0.00943377
0.0189518
-0.00904433
0.019655
-0.00866335
0.0203332
-0.00827947
0.0209837
-0.00790399
0.0216059
-0.00754735
0.0222007
-0.00718681
0.0227677
-0.00682636
0.0233063
-0.00646616
0.0238143
-0.00614201
0.0242936
-0.0058003
0.024744
-0.00545776
0.0251655
-0.00511621
0.025558
-0.00477531
0.0259208
-0.00446878
0.026255
-0.00413629
0.0265605
-0.00380304
0.0268375
-0.00346945
0.0270859
-0.00313494
0.0273057
-0.00280258
0.0274973
-0.00243663
0.0276604
-0.00209236
0.0277947
-0.00178045
0.0278999
-0.00149856
-0.00124403
0.0279755
0.00526068
-0.0193249
-0.00424753
0.00626482
-0.0183938
0.0072598
-0.0174083
0.00824354
-0.0164463
0.00921609
-0.0157547
0.0101768
-0.0151321
0.0111228
-0.0144237
0.0120563
-0.0139938
0.0129736
-0.0134009
0.013874
-0.0128929
0.0147585
-0.0124676
0.0156244
-0.0119855
0.0164689
-0.0115008
0.0172936
-0.011087
0.0180975
-0.0106611
0.0188765
-0.0102128
0.0196306
-0.00979848
0.0203603
-0.00939299
0.0210643
-0.0089835
0.0217401
-0.0085798
0.022387
-0.00819426
0.0230059
-0.00780569
0.0235961
-0.00741655
0.024157
-0.0070271
0.0246865
-0.00667151
0.0251862
-0.00629999
0.0256559
-0.00592751
0.0260956
-0.00555583
0.026505
-0.0051847
0.0268833
-0.00484715
0.0272316
-0.0044846
0.0275499
-0.0041213
0.0278381
-0.00375764
0.0280962
-0.00339304
0.0283242
-0.00303057
0.0285223
-0.00263471
0.0286902
-0.00226025
0.0288275
-0.00191775
0.0289337
-0.00160483
-0.00131868
0.0290084
0.00543881
-0.0203767
-0.00438704
0.00648118
-0.0194361
0.0075139
-0.0184411
0.0085349
-0.0174673
0.00954406
-0.0167639
0.0105406
-0.0161286
0.0115219
-0.015405
0.0124898
-0.0149617
0.0134407
-0.0143519
0.0143741
-0.0138262
0.0152907
-0.0133841
0.0161878
-0.0128827
0.017063
-0.0123759
0.0179176
-0.0119417
0.0187506
-0.011494
0.0195581
-0.0110203
0.0203402
-0.0105806
0.021097
-0.0101498
0.0218276
-0.00971404
0.0225292
-0.00928149
0.0232014
-0.00886637
0.0238446
-0.00844895
0.0244583
-0.00803025
0.0250418
-0.00761062
0.025593
-0.00722266
0.0261132
-0.00682023
0.0266024
-0.00641666
0.0270602
-0.00601364
0.0274865
-0.00561098
0.0278804
-0.00524106
0.0282428
-0.00484704
0.0285737
-0.00445222
0.0288731
-0.00405698
0.0291407
-0.00366071
0.0293767
-0.0032665
0.029581
-0.00283904
0.0297534
-0.00243261
0.0298933
-0.00205767
0.0300002
-0.0017117
-0.00139175
0.0300732
0.00562352
-0.0214689
-0.00453128
0.00670595
-0.0205186
0.00777822
-0.0195133
0.00883826
-0.0185273
0.0098858
-0.0178114
0.01092
-0.0171628
0.0119383
-0.0164232
0.0129422
-0.0159656
0.0139285
-0.0153381
0.0148964
-0.0147942
0.0158466
-0.0143343
0.0167765
-0.0138126
0.0176838
-0.0132832
0.0185696
-0.0128275
0.0194329
-0.0123573
0.0202701
-0.0118575
0.0210811
-0.0113916
0.0218661
-0.0109348
0.0226239
-0.0104719
0.0233521
-0.0100097
0.02405
-0.00956425
0.0247181
-0.00911706
0.0253557
-0.00866784
0.0259621
-0.00821704
0.0265352
-0.0077957
0.0270762
-0.00736124
0.0275849
-0.00692536
0.028061
-0.00648972
0.0285042
-0.00605422
0.0289137
-0.00565053
0.0292902
-0.00522358
0.0296337
-0.00479574
0.0299441
-0.00436734
0.0302212
-0.00393779
0.0304649
-0.00351017
0.0306752
-0.00304935
0.0308517
-0.00260913
0.0309938
-0.00219977
0.0311007
-0.00181865
-0.0014626
0.0311716
0.00581494
-0.0226035
-0.00468034
0.00693929
-0.0216429
0.00805296
-0.020627
0.00915387
-0.0196283
0.0102416
-0.0188991
0.0113152
-0.0182364
0.0123722
-0.0174802
0.013414
-0.0170074
0.0144372
-0.0163614
0.0154413
-0.0157983
0.0164267
-0.0153197
0.017391
-0.0147769
0.0183317
-0.0142239
0.0192501
-0.0137459
0.020145
-0.0132522
0.0210131
-0.0127256
0.0218541
-0.0122326
0.0226682
-0.0117488
0.0234542
-0.0112578
0.0242097
-0.0107653
0.024934
-0.0102886
0.0256276
-0.0098106
0.0262895
-0.00932982
0.0269193
-0.00884676
0.0275145
-0.00839098
0.0280766
-0.00792326
0.028605
-0.00745382
0.0290995
-0.00698423
0.0295598
-0.00651449
0.0299849
-0.00607561
0.0303755
-0.00561423
0.0307316
-0.0051518
0.0310529
-0.00468864
0.0313392
-0.00422413
0.0315904
-0.00376135
0.0318064
-0.00326537
0.0319867
-0.00278944
0.0321306
-0.00234362
0.0322371
-0.00192515
-0.0015306
0.0323051
0.0060132
-0.0237824
-0.00483429
0.00718139
-0.0228111
0.00833834
-0.021784
0.00948197
-0.0207719
0.0106117
-0.0200289
0.0117265
-0.0193513
0.0128241
-0.0185778
0.0139054
-0.0180887
0.0149674
-0.0174234
0.0160093
-0.0168402
0.0170315
-0.0163418
0.0180317
-0.015777
0.0190075
-0.0151998
0.0199599
-0.0146983
0.0208877
-0.01418
0.0217879
-0.0136258
0.0226601
-0.0131049
0.0235043
-0.012593
0.0243194
-0.0120729
0.0251031
-0.011549
0.0258546
-0.0110401
0.0265743
-0.0105302
0.0272612
-0.0100168
0.0279147
-0.00950026
0.0285326
-0.0090089
0.029116
-0.00850664
0.0296644
-0.00800227
0.0301775
-0.00749735
0.030655
-0.00699192
0.0310957
-0.00651637
0.0315005
-0.00601899
0.0318691
-0.00552035
0.0322012
-0.00502075
0.0324966
-0.00451955
0.0327551
-0.00401983
0.0329765
-0.00348683
0.0331603
-0.0029732
0.0333055
-0.00248881
0.033411
-0.00203069
-0.00159512
0.0334755
0.00621846
-0.0250076
-0.00499327
0.00743244
-0.0240251
0.00863462
-0.0229861
0.00982289
-0.0219602
0.0109965
-0.0212025
0.0121544
-0.0205092
0.0132943
-0.0197176
0.0144169
-0.0192113
0.0155194
-0.018526
0.0166009
-0.0179217
0.0176616
-0.0174025
0.0186992
-0.0168147
0.0197116
-0.0162121
0.0206995
-0.0156861
0.0216617
-0.0151423
0.0225953
-0.0145594
0.0234999
-0.0140095
0.0243754
-0.0134685
0.0252207
-0.0129182
0.0260335
-0.0123619
0.026813
-0.0118196
0.0275595
-0.0112767
0.028272
-0.0107293
0.0289498
-0.0101781
0.0295908
-0.00964992
0.030196
-0.00911176
0.0307647
-0.00857105
0.0312967
-0.00802933
0.0317915
-0.00748669
0.032248
-0.00697292
0.0326669
-0.00643791
0.033048
-0.00590137
0.0333908
-0.00536359
0.0336952
-0.0048239
0.0339607
-0.0042854
0.0341873
-0.00371343
0.0343742
-0.00316007
0.0345203
-0.00263492
0.0346244
-0.00213477
-0.00165556
0.0346848
0.00643089
-0.0262811
-0.00515738
0.00769269
-0.0252869
0.00894208
-0.0242355
0.0101769
-0.023195
0.0113964
-0.0224219
0.0125993
-0.0217121
0.0137834
-0.0209017
0.0149492
-0.0203771
0.016094
-0.0196708
0.0172168
-0.0190446
0.0183177
-0.0185034
0.0193944
-0.0178914
0.020445
-0.0172627
0.0214699
-0.016711
0.0224679
-0.0161403
0.0234363
-0.0155277
0.0243746
-0.0149477
0.0252825
-0.0143764
0.026159
-0.0137947
0.027002
-0.0132048
0.0278104
-0.012628
0.0285845
-0.0120508
0.0293234
-0.0114681
0.0300262
-0.0108809
0.0306908
-0.0103146
0.0313182
-0.00973907
0.0319076
-0.00916053
0.0324588
-0.00858044
0.0329711
-0.00799899
0.0334435
-0.0074454
0.0338767
-0.00687104
0.0342702
-0.00629485
0.0346237
-0.00571709
0.0349368
-0.00513706
0.0352093
-0.00455786
0.0354408
-0.00394493
0.0356304
-0.00334972
0.0357771
-0.00278155
0.0358792
-0.00223691
-0.00171135
0.035935
0.0066507
-0.027605
-0.00532676
0.00796238
-0.0265986
0.00926104
-0.0255342
0.0105445
-0.0244785
0.0118118
-0.0236892
0.0130616
-0.022962
0.0142918
-0.0221319
0.0155027
-0.021588
0.0166916
-0.0208597
0.0178576
-0.0202105
0.0190004
-0.0196462
0.020118
-0.0190091
0.0212084
-0.018353
0.0222718
-0.0177745
0.0233072
-0.0171757
0.0243118
-0.0165324
0.0252851
-0.015921
0.0262268
-0.0153181
0.0271358
-0.0147037
0.0280099
-0.014079
0.0288483
-0.0134664
0.0296509
-0.0128534
0.0304168
-0.0122341
0.0311453
-0.0116094
0.0318342
-0.0110035
0.0324843
-0.0103891
0.0330949
-0.00977113
0.0336655
-0.00915105
0.0341956
-0.0085291
0.0346842
-0.007934
0.0351316
-0.00731851
0.0355376
-0.00670083
0.0359017
-0.0060812
0.0362236
-0.00545889
0.0365027
-0.00483702
0.0367389
-0.00418107
0.036931
-0.00354184
0.0370778
-0.00292832
0.0371775
-0.00233666
-0.00176194
0.0372281
0.00687807
-0.0289816
-0.00550153
0.00824178
-0.0279623
0.00959182
-0.0268842
0.010926
-0.0258127
0.0122431
-0.0250063
0.013542
-0.0242608
0.0148203
-0.0234102
0.0160782
-0.0228459
0.0173131
-0.0220946
0.0185241
-0.0214214
0.0197107
-0.0208328
0.0208709
-0.0201693
0.0220027
-0.0194849
0.0231064
-0.0188781
0.0241807
-0.01825
0.025223
-0.0175747
0.0262327
-0.0169307
0.0272095
-0.0162948
0.0281521
-0.0156463
0.0290585
-0.0149855
0.0299279
-0.0143357
0.03076
-0.0136855
0.0315539
-0.013028
0.0323088
-0.0123642
0.0330226
-0.0117174
0.033696
-0.0110624
0.0343282
-0.0104033
0.0349187
-0.00974153
0.0354669
-0.00907732
0.0359718
-0.00843894
0.0364338
-0.00778044
0.0368523
-0.00711936
0.037227
-0.00645591
0.0375574
-0.00578932
0.0378431
-0.00512273
0.0380837
-0.00442163
0.038278
-0.00373613
0.0384246
-0.00307489
0.0385215
-0.00243362
-0.00180684
0.0385664
0.00711323
-0.030413
-0.00568186
0.00853118
-0.0293802
0.0099348
-0.0282878
0.0113218
-0.0271997
0.012691
-0.0263755
0.0140409
-0.0256107
0.0153693
-0.0247387
0.0166763
-0.0241529
0.0179592
-0.0233776
0.019217
-0.0226792
0.0204493
-0.022065
0.021654
-0.021374
0.022829
-0.02066
0.0239746
-0.0200237
0.0250894
-0.0193649
0.026171
-0.0186562
0.0272186
-0.0179783
0.0282318
-0.017308
0.0292093
-0.0166239
0.0301494
-0.0159255
0.0310507
-0.0152371
0.0319133
-0.0145481
0.0327362
-0.0138509
0.0335183
-0.0131464
0.0342578
-0.0124569
0.0349551
-0.0117597
0.0356095
-0.0110577
0.0362203
-0.0103524
0.036787
-0.00964402
0.0373086
-0.00896048
0.0377851
-0.00825703
0.0382163
-0.00755054
0.0386017
-0.00684123
0.0389406
-0.00612826
0.0392327
-0.00541485
0.0394775
-0.00466641
0.0396737
-0.00393234
0.0398198
-0.00322092
0.0399135
-0.00252739
-0.00184559
0.0399523
0.00735642
-0.0319015
-0.00586789
0.00883089
-0.0308547
0.0102903
-0.0297473
0.0117324
-0.0286418
0.0131558
-0.0277988
0.0145589
-0.0270138
0.0159396
-0.0261194
0.0172977
-0.025511
0.0186307
-0.0247106
0.0199373
-0.0239859
0.0212172
-0.0233448
0.0224682
-0.022625
0.0236883
-0.0218801
0.0248775
-0.0212129
0.0260346
-0.0205219
0.027157
-0.0197786
0.028244
-0.0190654
0.0292951
-0.0183591
0.030309
-0.0176378
0.0312838
-0.0169003
0.0322185
-0.0161717
0.0331126
-0.0154422
0.0339654
-0.0147036
0.0347757
-0.0139567
0.0355417
-0.0132229
0.0362636
-0.0124816
0.0369407
-0.0117348
0.0375724
-0.010984
0.038158
-0.0102296
0.0386965
-0.00949897
0.0391879
-0.00874849
0.0396319
-0.00799452
0.0400279
-0.00723721
0.0403754
-0.00647572
0.0406738
-0.00571327
0.0409226
-0.00491523
0.0411205
-0.00413023
0.0412657
-0.00336615
0.041356
-0.00261763
-0.00187781
0.0413882
0.00760787
-0.0334496
-0.00605979
0.00914124
-0.0323881
0.0106588
-0.0312649
0.0121583
-0.0301413
0.0136381
-0.0292786
0.0150967
-0.0284724
0.0165319
-0.0275546
0.0179432
-0.0269223
0.0193284
-0.0260957
0.0206859
-0.0253435
0.0220154
-0.0246743
0.0233146
-0.0239243
0.0245817
-0.0231472
0.0258164
-0.0224476
0.0270174
-0.021723
0.0281824
-0.0209436
0.0293104
-0.0201934
0.0304009
-0.0194495
0.0314526
-0.0186895
0.0324635
-0.0179113
0.0334327
-0.0171409
0.0343596
-0.0163692
0.0352433
-0.0155873
0.0360827
-0.0147961
0.036876
-0.0140162
0.0376233
-0.0132289
0.0383239
-0.0124354
0.038977
-0.0116371
0.0395819
-0.0108345
0.0401377
-0.0100548
0.0406444
-0.00925514
0.0411013
-0.00845148
0.0415081
-0.00764396
0.0418641
-0.00683167
0.0421687
-0.00601794
0.0424214
-0.00516796
0.0426208
-0.0043296
0.042765
-0.0035103
0.0428514
-0.00270405
-0.00190311
0.0428767
0.00786785
-0.0350597
-0.00625774
0.00946257
-0.0339828
0.0110407
-0.0328431
0.0126
-0.0317006
0.0141386
-0.0308172
0.015655
-0.0299887
0.0171469
-0.0290465
0.0186137
-0.0283892
0.0200532
-0.0275351
0.0214638
-0.0267541
0.0228449
-0.0260553
0.0241944
-0.0252738
0.0255104
-0.0244632
0.0267924
-0.0237297
0.0280393
-0.0229698
0.0292485
-0.0221528
0.0304192
-0.0213641
0.0315507
-0.020581
0.0326416
-0.0197804
0.0336902
-0.0189598
0.0346951
-0.0181458
0.035656
-0.0173301
0.0365717
-0.016503
0.0374413
-0.0156657
0.0382629
-0.0148378
0.0390364
-0.0140024
0.0397612
-0.0131601
0.0404363
-0.0123123
0.0410612
-0.0114594
0.0416347
-0.0106283
0.0421568
-0.00977727
0.042627
-0.00892166
0.0430447
-0.00806161
0.0434092
-0.00719619
0.04372
-0.00632882
0.0439766
-0.00542448
0.0441772
-0.00453028
0.0443201
-0.00365316