/*--------------------------------*- C++ -*----------------------------------*\
| =========                 |                                                 |
| \\      /  F ield         | OpenFOAM: The Open Source CFD Toolbox           |
|  \\    /   O peration     | Version:  3.0.1                                 |
|   \\  /    A nd           | Web:      www.OpenFOAM.org                      |
|    \\/     M anipulation  |                                                 |
\*---------------------------------------------------------------------------*/
FoamFile
{
    version     2.0;
    format      ascii;
    class       volVectorField;
    location    "50";
    object      U;
}
// * * * * * * * * * * * * * * * * * * * * * * * * * * * * * * * * * * * * * //

dimensions      [0 1 -1 0 0 0 0];

internalField   nonuniform List<vector> 
58000
(
(0.388892 0.656552 -9.859e-21)
(0.47238 0.827249 2.7169e-20)
(0.582247 0.922673 -8.67612e-21)
(0.694378 0.950354 2.66529e-21)
(0.79604 0.935483 4.03709e-21)
(0.880734 0.893268 0)
(0.949813 0.841722 -1.00337e-20)
(1.00473 0.786548 -2.17953e-21)
(1.05071 0.732628 1.28589e-20)
(1.08747 0.683673 0)
(1.11638 0.638924 1.67813e-20)
(1.1382 0.597963 1.52035e-20)
(1.15408 0.562273 -5.58591e-20)
(1.16507 0.530666 2.02832e-20)
(1.17315 0.501329 1.76462e-20)
(1.17914 0.474283 3.97584e-20)
(1.1828 0.449657 -5.79709e-20)
(1.18486 0.426769 0)
(1.18586 0.404876 4.0563e-20)
(1.18596 0.383934 -6.18177e-20)
(1.18509 0.364463 -3.22092e-22)
(1.18337 0.346201 2.10578e-20)
(1.18128 0.328664 1.01119e-20)
(1.17851 0.311416 0)
(1.17554 0.295058 1.97139e-20)
(1.17186 0.279797 -1.00083e-20)
(1.168 0.265192 0)
(1.16406 0.251045 3.71253e-22)
(1.15975 0.237112 0)
(1.15548 0.223886 -9.85959e-21)
(1.15089 0.211466 4.89945e-20)
(1.1464 0.199434 -4.876e-20)
(1.14203 0.18765 -2.9544e-20)
(1.13769 0.175983 7.72629e-20)
(1.13336 0.164461 -1.93505e-20)
(1.1274 0.153041 -9.8759e-21)
(1.11854 0.142216 1.44423e-20)
(1.10964 0.132885 -9.45273e-21)
(1.10224 0.125205 1.4051e-20)
(1.10253 0.11957 0)
(0.511162 0.387536 -8.50654e-21)
(0.55174 0.475795 0)
(0.61012 0.556717 -5.1618e-23)
(0.67898 0.622075 5.45783e-23)
(0.752496 0.66615 -4.78733e-21)
(0.827961 0.69041 -5.21972e-21)
(0.896431 0.694906 3.35995e-21)
(0.956936 0.684511 3.68562e-22)
(1.00733 0.662919 1.18442e-20)
(1.04626 0.635673 -7.66311e-21)
(1.07718 0.605035 0)
(1.10157 0.573131 -2.32164e-20)
(1.11958 0.542948 1.49706e-20)
(1.13332 0.514492 9.74451e-21)
(1.14408 0.486764 -1.02392e-20)
(1.15194 0.46098 0)
(1.15756 0.437689 1.09557e-20)
(1.16172 0.415739 0)
(1.16473 0.394483 4.30678e-20)
(1.16659 0.374393 -6.50814e-20)
(1.1675 0.355964 0)
(1.16778 0.338529 5.64709e-20)
(1.16753 0.321506 -4.45962e-20)
(1.16673 0.304829 0)
(1.16541 0.289242 -1.69807e-20)
(1.16381 0.274744 0)
(1.16192 0.260594 0)
(1.15977 0.246681 1.69906e-20)
(1.15732 0.233001 0)
(1.15469 0.220105 -1.69916e-20)
(1.15203 0.207977 2.22561e-20)
(1.14925 0.196054 -2.23087e-20)
(1.14633 0.184224 1.64494e-20)
(1.1432 0.172454 -1.11954e-20)
(1.13985 0.161002 0)
(1.13613 0.150199 -1.67262e-20)
(1.13229 0.140508 1.09897e-20)
(1.12854 0.131951 0)
(1.12558 0.123905 -2.7868e-21)
(1.12385 0.115925 5.74873e-21)
(0.590631 0.338858 4.16832e-21)
(0.604261 0.395513 -1.94131e-21)
(0.627683 0.453539 -6.38129e-21)
(0.662101 0.508314 -6.81653e-22)
(0.70623 0.554716 7.23184e-22)
(0.758006 0.590457 3.20749e-21)
(0.81175 0.612665 -1.31452e-21)
(0.865457 0.622502 0)
(0.9161 0.621191 -2.64407e-21)
(0.960278 0.610761 2.4858e-21)
(0.99904 0.593563 5.73262e-21)
(1.03185 0.57177 -2.58972e-22)
(1.05763 0.548087 0)
(1.07819 0.523625 1.75924e-20)
(1.09503 0.498683 -9.57179e-21)
(1.10801 0.474601 0)
(1.1178 0.451963 0)
(1.12551 0.430225 0)
(1.13166 0.409139 -5.94145e-21)
(1.13629 0.389134 6.68893e-21)
(1.13959 0.370502 0)
(1.14198 0.352743 6.44033e-21)
(1.14372 0.335477 0)
(1.14485 0.318669 0)
(1.14532 0.302854 1.3822e-20)
(1.1453 0.287942 -2.78986e-20)
(1.14494 0.273399 2.78124e-20)
(1.14427 0.259177 6.92111e-21)
(1.14332 0.245254 -1.39513e-20)
(1.14207 0.232032 -1.04101e-20)
(1.14063 0.219442 0)
(1.13902 0.207083 6.80376e-21)
(1.13723 0.19493 0)
(1.13524 0.182983 1.3781e-22)
(1.13303 0.171451 -1.03022e-20)
(1.13062 0.160451 6.88311e-21)
(1.12809 0.149951 0)
(1.12564 0.139902 0)
(1.12348 0.130054 -1.71419e-21)
(1.12157 0.120109 -1.92728e-21)
(0.656698 0.315782 3.15583e-21)
(0.663373 0.354591 1.08969e-21)
(0.674263 0.39508 6.63744e-22)
(0.691469 0.435684 3.03898e-23)
(0.715997 0.473847 -3.07214e-21)
(0.748055 0.507825 0)
(0.785153 0.534115 1.98524e-21)
(0.825666 0.552486 0)
(0.867454 0.562331 -4.90052e-22)
(0.90708 0.563773 -1.16373e-21)
(0.944526 0.558286 -2.56955e-21)
(0.978623 0.547003 2.38869e-21)
(1.00741 0.531716 -4.54527e-21)
(1.03178 0.513792 -1.07555e-20)
(1.05275 0.493899 -6.63456e-21)
(1.06977 0.473417 6.27878e-21)
(1.08327 0.453258 -6.47732e-21)
(1.09433 0.433274 0)
(1.10351 0.413427 -3.26607e-21)
(1.11083 0.394254 -1.65522e-20)
(1.1165 0.376149 1.65566e-20)
(1.12102 0.358734 -4.50404e-21)
(1.12467 0.341687 0)
(1.12754 0.325002 0)
(1.12961 0.309202 1.362e-20)
(1.13105 0.294237 -1.81606e-20)
(1.13204 0.279603 1.857e-20)
(1.13263 0.265251 1.94476e-22)
(1.13285 0.251173 -3.71787e-20)
(1.13271 0.237749 2.33965e-20)
(1.1323 0.224935 -9.32807e-21)
(1.13165 0.212347 -4.83681e-21)
(1.13076 0.199963 1.86451e-20)
(1.12963 0.187787 -6.88873e-21)
(1.12829 0.176016 2.37524e-21)
(1.12677 0.164737 -2.26635e-21)
(1.12511 0.153811 -2.26677e-21)
(1.12341 0.143178 0)
(1.1217 0.132784 1.15864e-21)
(1.11999 0.122605 -1.26846e-21)
(0.701566 0.303721 -1.50324e-21)
(0.705853 0.332628 -2.99736e-21)
(0.712196 0.362748 1.09932e-21)
(0.722057 0.393499 2.13855e-21)
(0.73668 0.423722 2.82455e-22)
(0.756915 0.452621 0)
(0.782047 0.477445 -8.33653e-22)
(0.811332 0.497657 -6.36466e-22)
(0.843662 0.512163 0)
(0.876429 0.52003 6.79878e-23)
(0.909291 0.522042 6.88411e-22)
(0.941039 0.518571 0)
(0.969501 0.510409 -2.65828e-21)
(0.994907 0.498722 3.27714e-21)
(1.01782 0.484214 0)
(1.0373 0.468 -7.75007e-21)
(1.05344 0.451052 2.25853e-20)
(1.06717 0.433535 6.73511e-22)
(1.07893 0.415589 -4.55716e-21)
(1.08865 0.397806 0)
(1.09651 0.380655 0)
(1.10302 0.363907 0)
(1.10849 0.347338 5.89677e-21)
(1.11305 0.330992 0)
(1.11663 0.315378 0)
(1.11945 0.300472 0)
(1.12172 0.285825 9.97303e-21)
(1.12348 0.271406 -1.30981e-20)
(1.1248 0.257217 1.65021e-20)
(1.12566 0.243626 -9.99248e-21)
(1.12615 0.2306 0)
(1.12633 0.217779 0)
(1.12622 0.205152 -3.436e-21)
(1.12583 0.192725 1.00674e-20)
(1.12518 0.180682 3.4143e-23)
(1.12432 0.169087 -8.2705e-21)
(1.12326 0.157778 5.02324e-21)
(1.12205 0.146705 0)
(1.12068 0.135893 0)
(1.11919 0.125411 -1.79884e-21)
(0.736267 0.296622 0)
(0.739451 0.319147 1.91159e-21)
(0.743668 0.342534 3.30524e-21)
(0.74997 0.36656 -3.13155e-21)
(0.759409 0.390666 8.95208e-22)
(0.772832 0.414575 -1.89891e-21)
(0.79026 0.436346 -4.65881e-22)
(0.81145 0.455548 -9.17186e-22)
(0.836016 0.471147 3.93447e-22)
(0.862214 0.481892 2.21615e-22)
(0.889738 0.488131 6.13335e-23)
(0.917628 0.489769 -2.75068e-21)
(0.943914 0.486882 5.28138e-21)
(0.96844 0.480307 -3.13534e-21)
(0.991464 0.470615 4.81822e-21)
(1.01189 0.458556 -4.48263e-21)
(1.02947 0.445 0)
(1.04491 0.430273 0)
(1.05852 0.414611 0)
(1.07012 0.398597 0)
(1.07977 0.38275 -4.46306e-21)
(1.08798 0.366984 -4.44288e-21)
(1.09507 0.351165 1.31343e-20)
(1.10113 0.335377 -8.97962e-21)
(1.10609 0.320121 0)
(1.11016 0.305419 4.60438e-21)
(1.11357 0.290883 -7.25387e-21)
(1.1164 0.276502 9.7182e-21)
(1.11869 0.262287 -1.72414e-20)
(1.12044 0.248596 4.90232e-21)
(1.12174 0.235412 -9.99251e-21)
(1.12265 0.222406 9.9415e-21)
(1.12321 0.209573 -1.22136e-22)
(1.12344 0.196919 2.56934e-21)
(1.12336 0.18462 0)
(1.12299 0.172741 0)
(1.12238 0.161122 -2.52157e-21)
(1.12152 0.149727 2.51963e-21)
(1.12042 0.138618 0)
(1.11914 0.127896 -1.29901e-21)
(0.763558 0.292195 5.83078e-22)
(0.766319 0.310387 -8.255e-22)
(0.769587 0.329171 -4.97706e-22)
(0.774134 0.348476 9.34743e-22)
(0.780797 0.368032 2.30895e-21)
(0.790294 0.387804 1.84169e-21)
(0.802899 0.406447 6.94427e-22)
(0.818613 0.423684 -8.02807e-23)
(0.837434 0.438699 0)
(0.858267 0.450271 0)
(0.880927 0.458535 1.18533e-22)
(0.904759 0.463172 0)
(0.928154 0.463836 0)
(0.950797 0.461058 -2.62857e-21)
(0.972784 0.455243 1.29671e-21)
(0.993004 0.446796 -3.63533e-21)
(1.01102 0.436402 1.98625e-21)
(1.0273 0.424437 0)
(1.04202 0.411156 2.49948e-21)
(1.0549 0.39709 3.17082e-21)
(1.0659 0.382762 -6.20803e-21)
(1.07546 0.368194 9.90172e-21)
(1.08386 0.35333 2.69067e-22)
(1.09119 0.338288 -6.79069e-21)
(1.09735 0.323557 3.79132e-21)
(1.10251 0.309206 -7.11541e-21)
(1.10694 0.294909 -7.34485e-21)
(1.11072 0.280672 -3.67172e-21)
(1.11388 0.266524 3.92419e-21)
(1.11642 0.252815 -9.53683e-21)
(1.11842 0.239545 1.5453e-20)
(1.11998 0.226414 8.77892e-23)
(1.12113 0.213426 -1.56344e-20)
(1.12188 0.20059 1.9857e-21)
(1.12226 0.18808 0)
(1.12231 0.175964 5.87103e-21)
(1.12204 0.164096 -2.00317e-21)
(1.12146 0.15245 0)
(1.12059 0.141104 9.96807e-22)
(1.11948 0.130166 1.13213e-21)
(0.785699 0.289281 -5.35675e-22)
(0.788302 0.304379 3.00725e-22)
(0.791148 0.319879 6.72828e-23)
(0.794812 0.335773 6.40039e-24)
(0.799957 0.351937 -1.24714e-22)
(0.807159 0.368439 -1.9632e-21)
(0.816752 0.384334 5.39277e-22)
(0.828834 0.399467 -3.80623e-22)
(0.843575 0.413234 3.9983e-22)
(0.860314 0.424573 0)
(0.878978 0.433527 1.19106e-23)
(0.899162 0.439711 -8.38418e-22)
(0.919625 0.442575 3.60621e-22)
(0.940024 0.442419 -2.58722e-21)
(0.960392 0.439503 3.41309e-21)
(0.979707 0.433963 -3.83414e-21)
(0.997429 0.426287 4.5694e-21)
(1.01385 0.416827 0)
(1.02905 0.405817 -2.10101e-21)
(1.04267 0.3937 2.29021e-21)
(1.05457 0.380965 -2.45333e-21)
(1.0651 0.367709 5.0688e-21)
(1.07452 0.353933 -1.04038e-20)
(1.08286 0.339774 5.29181e-21)
(1.08999 0.325703 2.91605e-21)
(1.09608 0.311827 2.97528e-21)
(1.1014 0.297884 -5.95262e-21)
(1.10599 0.283899 1.19465e-20)
(1.10992 0.269912 0)
(1.11315 0.256268 9.37967e-21)
(1.11577 0.242989 -9.15535e-21)
(1.11789 0.229801 6.27929e-21)
(1.11955 0.216717 -4.63534e-21)
(1.12076 0.203755 1.61641e-21)
(1.12154 0.191087 1.54736e-21)
(1.12192 0.178788 -7.38966e-23)
(1.12193 0.166724 -1.63087e-21)
(1.12159 0.154881 0)
(1.12091 0.143342 -8.05821e-22)
(1.11996 0.132212 8.67574e-22)
(0.804053 0.287245 0)
(0.806624 0.30005 0)
(0.809298 0.313123 -1.87534e-21)
(0.81252 0.326486 9.67709e-22)
(0.816819 0.340084 -4.57348e-22)
(0.822655 0.354028 2.00656e-21)
(0.830346 0.367636 -1.27154e-21)
(0.84002 0.380832 0)
(0.85191 0.393177 0)
(0.865622 0.403796 7.62021e-23)
(0.881158 0.412697 -4.14091e-22)
(0.898294 0.419507 -1.43404e-22)
(0.916103 0.423608 1.41117e-21)
(0.934278 0.42515 -1.01623e-22)
(0.952832 0.424283 -1.16706e-21)
(0.970882 0.420957 0)
(0.987867 0.415486 0)
(1.00396 0.408168 0)
(1.01915 0.399189 0)
(1.03305 0.388895 -3.52288e-21)
(1.04544 0.377717 3.54283e-21)
(1.05661 0.365794 5.91057e-21)
(1.06673 0.353162 -8.28884e-21)
(1.07583 0.339965 2.1385e-21)
(1.08374 0.326645 0)
(1.09058 0.313342 -4.71389e-21)
(1.09662 0.299849 4.69995e-21)
(1.1019 0.286206 -2.52034e-21)
(1.10648 0.272468 0)
(1.11031 0.258971 -2.6305e-21)
(1.11347 0.245756 2.52501e-21)
(1.11609 0.23258 1.02477e-20)
(1.11818 0.219464 -1.03385e-20)
(1.11979 0.206435 5.16163e-21)
(1.12091 0.193665 -1.33895e-21)
(1.12158 0.181235 -6.53487e-21)
(1.12184 0.169027 2.62174e-21)
(1.1217 0.157033 1.32702e-21)
(1.12119 0.145339 -1.99338e-21)
(1.12037 0.134042 7.11698e-22)
(0.81954 0.285728 0)
(0.822132 0.296779 0)
(0.824758 0.308006 1.07153e-21)
(0.827768 0.319438 -1.10999e-21)
(0.831591 0.331062 -8.70141e-23)
(0.836597 0.342994 -9.70331e-22)
(0.843066 0.354731 1.07489e-21)
(0.851129 0.366243 2.15357e-22)
(0.861025 0.377215 -5.50356e-22)
(0.872521 0.386934 5.2251e-23)
(0.885665 0.395402 -1.21385e-22)
(0.90035 0.402288 -1.13488e-22)
(0.915893 0.406986 3.10447e-22)
(0.932041 0.40955 8.74104e-22)
(0.948814 0.410059 1.51004e-21)
(0.965476 0.408347 7.47458e-23)
(0.981489 0.404589 -1.77428e-21)
(0.996944 0.39902 0)
(1.01179 0.391775 -2.33884e-21)
(1.02563 0.383106 2.60652e-21)
(1.03821 0.373375 -3.0671e-21)
(1.0497 0.362735 1.62579e-21)
(1.06027 0.351239 1.87611e-22)
(1.06988 0.33903 2.01298e-21)
(1.07836 0.326511 -3.6378e-21)
(1.08578 0.313845 0)
(1.0924 0.300871 5.92397e-21)
(1.09825 0.287644 -1.00693e-20)
(1.10337 0.274228 8.23531e-21)
(1.10771 0.26095 -6.3231e-21)
(1.11133 0.247868 -4.27877e-21)
(1.11437 0.23477 4.25624e-21)
(1.11685 0.221684 4.36627e-21)
(1.11879 0.208647 -4.33187e-21)
(1.12021 0.19583 2.20707e-21)
(1.12113 0.183322 6.6377e-23)
(1.1216 0.171018 0)
(1.12164 0.158917 0)
(1.12127 0.147102 1.09547e-21)
(1.12057 0.135667 0)
(0.832798 0.284517 4.33921e-22)
(0.835435 0.294194 1.03583e-22)
(0.838071 0.303979 -1.05467e-22)
(0.840989 0.313905 2.97603e-24)
(0.844543 0.323976 0)
(0.849034 0.334307 5.43345e-22)
(0.854702 0.344516 -2.21391e-22)
(0.861668 0.3546 2.25138e-22)
(0.870157 0.364327 -1.2437e-22)
(0.88003 0.373121 1.89677e-22)
(0.891358 0.380987 6.09042e-23)
(0.904105 0.387643 0)
(0.91777 0.39253 -4.0102e-22)
(0.932156 0.395647 2.95195e-22)
(0.947296 0.397028 2.22242e-21)
(0.962586 0.396445 -2.45118e-21)
(0.97754 0.393973 4.65064e-21)
(0.9922 0.389786 -1.63801e-21)
(1.0065 0.383971 2.09167e-21)
(1.02004 0.376699 -2.3318e-21)
(1.03254 0.368261 0)
(1.04413 0.358806 2.73835e-21)
(1.05491 0.348392 2.71341e-21)
(1.06484 0.337153 0)
(1.07369 0.325448 0)
(1.08154 0.313451 3.12147e-21)
(1.0886 0.301042 1.66143e-21)
(1.0949 0.288284 -1.60297e-21)
(1.10046 0.275248 3.39441e-21)
(1.10521 0.262248 5.34245e-21)
(1.10922 0.24936 -3.56863e-21)
(1.11261 0.236399 0)
(1.11542 0.223402 -3.72408e-21)
(1.11765 0.210412 3.69484e-21)
(1.11932 0.197602 1.88623e-21)
(1.12046 0.185065 1.8801e-23)
(1.12112 0.172711 -1.88648e-21)
(1.12131 0.160542 0)
(1.12107 0.148643 -2.85423e-21)
(1.12045 0.1371 0)
(0.844285 0.283488 -5.55436e-22)
(0.846971 0.292063 6.0366e-22)
(0.849643 0.300697 5.24666e-22)
(0.852533 0.309422 -5.53891e-22)
(0.855937 0.31825 -4.9455e-22)
(0.860102 0.32729 -5.04316e-22)
(0.865233 0.336243 -3.5731e-22)
(0.871438 0.345122 2.69897e-22)
(0.878918 0.353753 4.88198e-23)
(0.88759 0.361668 -4.79506e-23)
(0.897535 0.368877 -2.44358e-22)
(0.908759 0.375144 -1.67678e-22)
(0.920892 0.379971 1.29776e-21)
(0.933784 0.383327 -1.19413e-21)
(0.947478 0.385221 -9.27559e-22)
(0.961487 0.385396 1.27103e-21)
(0.975385 0.383859 -2.41283e-21)
(0.989185 0.380733 -1.40758e-21)
(1.00281 0.376066 3.51104e-21)
(1.0159 0.369962 -3.54461e-21)
(1.02816 0.362646 0)
(1.03966 0.354253 0)
(1.05047 0.344838 -1.67027e-22)
(1.06054 0.334518 0)
(1.06962 0.32361 0)
(1.07775 0.312289 -2.83701e-21)
(1.08512 0.300467 -2.76351e-21)
(1.09175 0.28821 -2.8526e-21)
(1.09765 0.275596 2.86661e-21)
(1.10273 0.262922 -1.62022e-21)
(1.10705 0.250279 -1.09871e-22)
(1.11075 0.237506 3.12427e-21)
(1.11382 0.224648 0)
(1.11631 0.211756 4.81446e-21)
(1.11819 0.199001 -3.22769e-21)
(1.11952 0.186482 -3.23734e-21)
(1.12033 0.17412 1.63443e-21)
(1.12066 0.161923 -8.28537e-22)
(1.12052 0.149975 2.52767e-21)
(1.11998 0.138356 0)
(0.854338 0.282566 3.40664e-22)
(0.85707 0.290239 -2.44877e-22)
(0.859788 0.297937 -1.40749e-22)
(0.862683 0.305686 4.68942e-22)
(0.866003 0.313504 5.22759e-22)
(0.869959 0.321486 -1.66176e-22)
(0.87472 0.329397 5.05576e-22)
(0.880384 0.337257 -4.56558e-22)
(0.887127 0.344934 2.73529e-22)
(0.894898 0.352044 4.45203e-23)
(0.903781 0.358601 8.07552e-23)
(0.913805 0.364408 -2.97183e-22)
(0.924692 0.369031 6.7943e-22)
(0.936329 0.372423 5.52871e-22)
(0.948771 0.374578 1.41452e-21)
(0.961623 0.375236 6.27617e-23)
(0.974517 0.374358 -1.1094e-21)
(0.987456 0.372028 5.13855e-21)
(1.00037 0.368262 -7.02547e-21)
(1.01291 0.363112 6.34604e-21)
(1.0248 0.356748 -1.65642e-21)
(1.03608 0.349284 0)
(1.04679 0.340768 -1.36572e-22)
(1.05686 0.331297 0)
(1.06603 0.321148 0)
(1.07432 0.310489 0)
(1.08189 0.299255 1.45849e-22)
(1.08875 0.287515 7.7974e-21)
(1.09489 0.275348 -7.81461e-21)
(1.10023 0.263036 -4.50744e-23)
(1.10481 0.250676 -5.47224e-21)
(1.10874 0.238134 2.78378e-21)
(1.11204 0.22546 -2.67836e-21)
(1.11472 0.212709 -4.24359e-21)
(1.11679 0.200054 -1.3899e-21)
(1.11827 0.187595 2.86719e-21)
(1.11922 0.175265 0)
(1.11965 0.163079 -1.41412e-21)
(1.11961 0.151116 -1.78386e-21)
(1.11912 0.139456 3.75611e-22)
(0.863209 0.281709 2.85112e-22)
(0.865981 0.28863 0)
(0.868745 0.295552 -9.12402e-22)
(0.87166 0.302495 3.83523e-22)
(0.874937 0.309477 4.15974e-22)
(0.878754 0.316583 -8.25376e-23)
(0.883255 0.323621 0)
(0.888525 0.330615 1.92916e-22)
(0.894717 0.337464 -1.10096e-22)
(0.901802 0.34385 -4.79817e-23)
(0.909858 0.349788 -2.11835e-22)
(0.918928 0.355115 -1.16493e-22)
(0.928799 0.359454 -6.58024e-23)
(0.939388 0.362754 0)
(0.950755 0.365 -2.01178e-21)
(0.96258 0.365941 2.20396e-21)
(0.97455 0.365511 0)
(0.986661 0.363763 -2.15848e-21)
(0.998847 0.360691 1.27058e-21)
(1.01081 0.356308 -2.88283e-21)
(1.02226 0.350736 1.33058e-21)
(1.03323 0.344071 0)
(1.04373 0.336347 1.82192e-21)
(1.05368 0.327646 -1.81824e-21)
(1.06284 0.318201 0)
(1.07119 0.308175 -4.24074e-21)
(1.07887 0.297517 4.35468e-21)
(1.08587 0.286295 2.3689e-21)
(1.09217 0.274587 -4.50909e-21)
(1.09769 0.262657 0)
(1.10245 0.25061 8.61236e-23)
(1.10656 0.238333 -4.78374e-21)
(1.11004 0.225878 2.53661e-21)
(1.11288 0.213307 0)
(1.1151 0.200789 1.29239e-21)
(1.11671 0.188428 -1.3001e-21)
(1.11776 0.176169 1.24452e-21)
(1.11829 0.164028 1.31306e-21)
(1.11831 0.152086 2.57182e-21)
(1.11786 0.140421 1.29007e-21)
(0.871096 0.28089 0)
(0.873899 0.287174 0)
(0.876704 0.293442 4.1376e-23)
(0.879645 0.29971 -6.89212e-22)
(0.882901 0.305992 -3.98972e-23)
(0.886624 0.312361 -2.31039e-22)
(0.890936 0.318661 0)
(0.895911 0.324916 0)
(0.901683 0.331044 -2.03159e-23)
(0.908233 0.336783 2.07835e-23)
(0.915637 0.342149 2.98607e-23)
(0.92394 0.347003 -1.57785e-22)
(0.932978 0.35102 0)
(0.942689 0.354151 0)
(0.953136 0.356373 1.07953e-21)
(0.964059 0.357455 -1.3355e-21)
(0.975189 0.357313 1.63043e-22)
(0.986524 0.35598 1.22145e-21)
(0.998007 0.353433 -2.02851e-21)
(1.00937 0.349657 0)
(1.02035 0.344736 1.29475e-21)
(1.03094 0.338746 1.40531e-21)
(1.04117 0.331712 0)
(1.05093 0.323696 1.6981e-21)
(1.05999 0.314897 -3.42191e-21)
(1.0683 0.305462 0)
(1.07601 0.295356 1.9697e-21)
(1.08307 0.28464 -1.99261e-21)
(1.08947 0.273392 5.98566e-21)
(1.0951 0.261857 0)
(1.09999 0.250143 4.26901e-21)
(1.10423 0.238154 2.22845e-21)
(1.10784 0.225947 2.14992e-21)
(1.11081 0.213588 -2.24214e-21)
(1.11313 0.20124 2.23118e-21)
(1.11484 0.189011 0)
(1.11598 0.176856 -1.16637e-21)
(1.11657 0.164795 0)
(1.11663 0.152909 -1.17392e-21)
(1.1162 0.141275 -1.19633e-21)
(0.878154 0.280094 1.96879e-22)
(0.88098 0.285831 -2.86337e-22)
(0.883818 0.29154 7.58374e-22)
(0.886783 0.297234 3.12878e-22)
(0.890027 0.302922 -2.69119e-22)
(0.893684 0.308667 3.10978e-22)
(0.897854 0.314336 -9.09844e-23)
(0.902603 0.319954 1.75787e-22)
(0.908048 0.325455 5.2756e-23)
(0.914175 0.330618 1.76426e-25)
(0.921055 0.33546 -1.95914e-23)
(0.928735 0.339863 4.8846e-22)
(0.937083 0.343547 -5.00324e-22)
(0.946055 0.346463 -1.0949e-22)
(0.955714 0.34859 -1.2345e-22)
(0.965845 0.349712 2.59691e-21)
(0.97622 0.349741 -1.41427e-21)
(0.986839 0.348693 1.57794e-21)
(0.997654 0.346534 -2.02052e-21)
(1.00843 0.343231 -4.94107e-23)
(1.01891 0.338838 -1.22174e-21)
(1.02911 0.333414 1.34004e-21)
(1.03901 0.326972 2.24236e-23)
(1.04852 0.319559 0)
(1.05741 0.311342 0)
(1.06563 0.302454 -3.191e-21)
(1.07328 0.292867 -1.66463e-21)
(1.08034 0.282639 -1.7277e-21)
(1.08677 0.271842 -9.66949e-23)
(1.09246 0.260705 -5.639e-21)
(1.09742 0.249333 1.8095e-21)
(1.10175 0.23765 0)
(1.10544 0.225713 -4.02881e-21)
(1.1085 0.21359 3.93471e-21)
(1.1109 0.201441 0)
(1.11268 0.189374 2.04593e-21)
(1.11387 0.177354 -1.0062e-21)
(1.11451 0.165406 -2.05115e-21)
(1.1146 0.153611 1.53907e-21)
(1.11416 0.142044 -1.53245e-21)
(0.884509 0.27931 0)
(0.887348 0.284573 0)
(0.89021 0.289799 -5.82072e-22)
(0.893193 0.294998 0)
(0.896431 0.300176 0)
(0.900037 0.305386 7.29696e-23)
(0.904097 0.310513 -7.45001e-23)
(0.908668 0.315579 -1.69312e-22)
(0.913851 0.320532 -5.08806e-23)
(0.919636 0.325183 1.87546e-22)
(0.926089 0.329548 3.81281e-22)
(0.933254 0.333529 4.6576e-22)
(0.941025 0.336883 -3.90566e-22)
(0.94937 0.339563 1.49038e-22)
(0.958351 0.341548 -8.25979e-22)
(0.967788 0.342642 2.30312e-21)
(0.977489 0.342756 -1.22385e-21)
(0.987453 0.341895 1.48203e-21)
(0.997642 0.340017 0)
(1.00785 0.337078 4.00209e-21)
(1.01784 0.333109 -4.10167e-21)
(1.02761 0.328153 -2.24678e-21)
(1.03716 0.322214 -4.98292e-21)
(1.04638 0.315327 -1.4728e-22)
(1.05506 0.307629 -1.50113e-22)
(1.06312 0.29924 5.90627e-21)
(1.07068 0.290137 1.58178e-21)
(1.07767 0.280371 4.75696e-21)
(1.08408 0.270011 -4.89716e-21)
(1.08977 0.259266 1.74171e-21)
(1.09477 0.248242 3.4989e-21)
(1.09914 0.236874 -3.48045e-21)
(1.10287 0.225223 0)
(1.10598 0.213356 -1.85728e-21)
(1.10843 0.201428 0)
(1.11025 0.189549 5.34286e-23)
(1.11148 0.177693 -1.83916e-21)
(1.11213 0.165889 0)
(1.11223 0.154217 1.81243e-21)
(1.11177 0.142756 4.5507e-23)
(0.890263 0.278532 3.40911e-22)
(0.893108 0.28338 -6.81236e-23)
(0.895983 0.288185 9.54931e-23)
(0.898977 0.292954 -1.84281e-24)
(0.902206 0.297689 6.83186e-22)
(0.90577 0.302434 -5.98325e-23)
(0.909739 0.30709 -1.52518e-23)
(0.914165 0.311677 -1.3802e-23)
(0.919134 0.316148 2.79134e-23)
(0.924638 0.320344 -1.31046e-22)
(0.930736 0.324279 -2.30737e-22)
(0.937472 0.327869 0)
(0.944755 0.330904 1.05359e-21)
(0.952564 0.33334 6.71141e-23)
(0.960957 0.335157 -1.5965e-21)
(0.969786 0.336178 -1.04686e-21)
(0.978882 0.336316 1.17616e-21)
(0.988251 0.335568 1.39672e-21)
(0.997859 0.333888 -1.47439e-21)
(1.00752 0.331224 0)
(1.01704 0.327591 1.97676e-21)
(1.02639 0.32302 2.27546e-21)
(1.03556 0.317507 2.74396e-22)
(1.04446 0.311074 -7.11561e-21)
(1.05289 0.303836 -2.48517e-21)
(1.06077 0.295898 0)
(1.06817 0.287241 2.84602e-21)
(1.07506 0.277909 -5.81504e-21)
(1.0814 0.267966 3.06599e-21)
(1.08705 0.257603 -1.17248e-22)
(1.09203 0.246926 2.9844e-21)
(1.09641 0.235878 6.29311e-21)
(1.10016 0.224522 -1.59018e-21)
(1.10328 0.212925 0)
(1.10575 0.201238 -1.62603e-21)
(1.10758 0.18957 1.7191e-21)
(1.10882 0.177903 0)
(1.10947 0.166271 1.64652e-21)
(1.10955 0.154755 -2.15129e-21)
(1.10904 0.143437 1.27729e-21)
(0.8955 0.277755 0)
(0.898342 0.282238 0)
(0.901223 0.286672 -1.90002e-22)
(0.90422 0.291063 -1.61558e-24)
(0.907436 0.29541 -9.58506e-22)
(0.91096 0.29975 0)
(0.914851 0.303994 -1.43168e-22)
(0.919153 0.30816 1.4683e-22)
(0.923943 0.312207 0)
(0.92921 0.315997 0)
(0.935009 0.319544 0)
(0.94138 0.322776 -4.28652e-22)
(0.948247 0.325508 4.29897e-22)
(0.955593 0.327703 -7.67632e-23)
(0.963475 0.329339 -1.16804e-22)
(0.971766 0.330257 -5.58412e-23)
(0.980322 0.330376 -4.81822e-23)
(0.98915 0.329686 -1.29597e-21)
(0.998222 0.328139 0)
(1.00738 0.325681 0)
(1.01643 0.322313 0)
(1.02536 0.318056 5.89305e-21)
(1.03415 0.312901 -3.84522e-21)
(1.04273 0.306859 4.48657e-21)
(1.05088 0.300025 1.29243e-22)
(1.05853 0.292493 -2.48927e-21)
(1.06576 0.284243 2.48426e-21)
(1.0725 0.275315 -2.69203e-21)
(1.07873 0.265767 5.33398e-21)
(1.08431 0.255774 -1.41612e-22)
(1.08924 0.245437 -2.94701e-21)
(1.09358 0.23471 -1.45957e-22)
(1.0973 0.223655 -1.38006e-21)
(1.10041 0.212338 3.03716e-21)
(1.10287 0.200906 7.45063e-23)
(1.10469 0.189468 -1.52169e-21)
(1.10591 0.178014 1.54439e-21)
(1.10654 0.16658 -4.6155e-21)
(1.10658 0.155253 1.11478e-21)
(1.10601 0.144114 3.77894e-22)
(0.900288 0.276975 -9.96997e-23)
(0.903121 0.281137 1.77559e-22)
(0.905998 0.285243 7.45084e-22)
(0.90899 0.289299 3.17931e-22)
(0.912189 0.293302 3.44198e-22)
(0.915673 0.297285 -5.82951e-23)
(0.919493 0.301166 2.81623e-23)
(0.923687 0.30496 -2.42338e-23)
(0.928321 0.308632 9.16701e-23)
(0.933384 0.312061 -2.39605e-22)
(0.938927 0.315259 2.45968e-22)
(0.944984 0.318163 5.78039e-23)
(0.95149 0.320612 -9.02366e-22)
(0.958433 0.322572 -1.20697e-21)
(0.965866 0.324023 7.4746e-22)
(0.973681 0.324822 1.7599e-21)
(0.981752 0.324893 1.13408e-21)
(0.990088 0.32422 -3.33672e-21)
(0.998667 0.322759 0)
(1.00734 0.32045 0)
(1.01595 0.31729 1.56873e-21)
(1.02448 0.313289 3.61023e-21)
(1.03289 0.308433 -3.73785e-21)
(1.04112 0.302727 -2.46298e-22)
(1.04898 0.296247 -2.30401e-22)
(1.0564 0.289078 -2.16388e-22)
(1.06342 0.281199 2.17409e-21)
(1.06999 0.272645 2.37258e-21)
(1.07607 0.263468 -5.10554e-21)
(1.08154 0.253828 2.40994e-21)
(1.08639 0.243823 2.66897e-21)
(1.09066 0.233414 -6.97656e-23)
(1.09434 0.222661 1.01467e-22)
(1.0974 0.211632 2.78916e-21)
(1.09982 0.200468 -1.36624e-21)
(1.10161 0.189276 -2.81109e-21)
(1.10279 0.178054 1.40267e-21)
(1.10337 0.166845 1.44841e-21)
(1.10336 0.155735 -7.09004e-23)
(1.10272 0.144811 0)
(0.904683 0.276188 6.14401e-22)
(0.907501 0.280066 -1.12271e-22)
(0.910368 0.283881 -3.73292e-22)
(0.913349 0.287638 -2.78673e-22)
(0.916525 0.291336 -3.29345e-23)
(0.919968 0.295001 6.48773e-23)
(0.92372 0.29856 1.2879e-22)
(0.927814 0.302025 -3.26035e-23)
(0.93231 0.305363 0)
(0.937194 0.308469 1.42988e-22)
(0.942512 0.311353 -2.39621e-22)
(0.948295 0.313959 7.44079e-22)
(0.954485 0.316146 -1.37182e-21)
(0.961073 0.317883 5.30572e-22)
(0.968109 0.319151 1.50112e-21)
(0.9755 0.319821 -2.35913e-21)
(0.983135 0.319823 0)
(0.991023 0.319141 1.10552e-21)
(0.999147 0.317728 0)
(1.00738 0.315527 1.31844e-21)
(1.01557 0.312527 -4.59714e-21)
(1.02369 0.308734 3.08507e-21)
(1.03174 0.304128 -3.45667e-21)
(1.03963 0.298709 0)
(1.04719 0.292541 -1.90985e-21)
(1.05434 0.285695 0)
(1.06114 0.278152 -4.37858e-21)
(1.06751 0.269943 4.36808e-21)
(1.07343 0.261114 0)
(1.07876 0.251811 -4.84995e-21)
(1.0835 0.242127 -6.54225e-23)
(1.08768 0.23203 2.41008e-21)
(1.09128 0.22158 -2.49246e-21)
(1.09427 0.210843 0)
(1.09663 0.199954 0)
(1.09836 0.189021 0)
(1.09949 0.178051 3.83879e-21)
(1.1 0.167089 -1.29236e-21)
(1.09992 0.156225 -6.58976e-23)
(1.09918 0.14555 0)
(0.908732 0.275393 -1.30231e-22)
(0.911529 0.279018 -1.02657e-22)
(0.914381 0.282573 3.10482e-22)
(0.917344 0.286065 -2.52365e-22)
(0.920493 0.289489 -4.26535e-23)
(0.923892 0.29287 1.73023e-22)
(0.927577 0.296141 -6.48504e-23)
(0.931579 0.299312 -5.41705e-23)
(0.935948 0.302353 1.14674e-22)
(0.940671 0.305169 1.59519e-22)
(0.945789 0.30777 0)
(0.951329 0.310105 3.84952e-22)
(0.957238 0.312051 5.19398e-23)
(0.963511 0.313578 -6.39495e-22)
(0.970193 0.314668 1.19833e-21)
(0.977203 0.315207 0)
(0.984442 0.31513 0)
(0.991921 0.314418 4.10014e-21)
(0.999626 0.313027 2.29618e-22)
(1.00744 0.310901 -1.21788e-21)
(1.01523 0.308025 2.6804e-21)
(1.02298 0.3044 -2.89988e-21)
(1.03066 0.300003 -1.48256e-21)
(1.03822 0.294831 -3.49727e-21)
(1.04547 0.288935 5.36465e-21)
(1.05236 0.282378 3.87794e-21)
(1.05891 0.275141 -9.8507e-21)
(1.06507 0.267249 6.04803e-21)
(1.0708 0.258745 4.32487e-21)
(1.07598 0.249761 -2.17671e-21)
(1.08058 0.240387 0)
(1.08464 0.230595 2.23711e-21)
(1.08813 0.220445 0)
(1.09104 0.210001 0)
(1.09332 0.199394 2.39664e-21)
(1.09497 0.188733 -4.71345e-21)
(1.09602 0.178029 -4.80026e-21)
(1.09645 0.167335 -2.33559e-21)
(1.09628 0.156743 -2.08531e-21)
(1.09543 0.146351 -2.86218e-22)
(0.912471 0.274588 0)
(0.915245 0.277987 0)
(0.918076 0.28131 -5.88736e-22)
(0.921017 0.284563 2.05236e-23)
(0.924135 0.287742 1.70055e-22)
(0.927488 0.290868 -1.28011e-22)
(0.931107 0.293881 4.81967e-23)
(0.93502 0.296788 0)
(0.939271 0.299562 -7.75718e-23)
(0.943846 0.302118 -4.81636e-22)
(0.948782 0.304464 4.8204e-22)
(0.954103 0.306553 6.5193e-22)
(0.95976 0.308277 0)
(0.965749 0.309608 -1.02107e-21)
(0.972113 0.31053 -2.54818e-21)
(0.978778 0.310939 2.7752e-21)
(0.985658 0.310776 1.32556e-22)
(0.992762 0.310022 -5.68574e-21)
(1.00008 0.308633 2.14285e-21)
(1.00751 0.306557 -7.03089e-21)
(1.01492 0.303777 -1.65205e-22)
(1.02231 0.300288 1.28003e-22)
(1.02964 0.296068 1.39736e-22)
(1.03686 0.291108 3.2425e-21)
(1.04381 0.285451 1.7976e-22)
(1.05042 0.279152 -3.26158e-21)
(1.05672 0.272193 -1.86742e-21)
(1.06266 0.264594 -2.10829e-21)
(1.06818 0.256392 3.86959e-21)
(1.07318 0.247712 -2.08851e-21)
(1.07763 0.238635 0)
(1.08155 0.22914 -3.20672e-23)
(1.08493 0.219285 -6.42265e-21)
(1.08772 0.209135 -3.75261e-23)
(1.0899 0.198816 2.18846e-21)
(1.09145 0.188435 2.27495e-21)
(1.09241 0.178011 2.27766e-21)
(1.09275 0.167604 2.27292e-21)
(1.09247 0.157309 3.27197e-21)
(1.09151 0.14723 0)
(0.915936 0.27377 1.69043e-23)
(0.91868 0.276967 -3.13235e-22)
(0.921487 0.280082 2.79083e-22)
(0.924402 0.28312 -2.36077e-22)
(0.927485 0.286079 -1.20803e-22)
(0.930789 0.288976 0)
(0.934343 0.291756 -4.74054e-23)
(0.938169 0.294426 0)
(0.942308 0.296959 -1.86747e-22)
(0.946745 0.299281 3.19332e-22)
(0.951514 0.301396 -4.728e-22)
(0.956635 0.303262 -6.38901e-22)
(0.962064 0.304783 -8.02418e-22)
(0.967795 0.305933 -7.46187e-23)
(0.97387 0.306696 2.26857e-21)
(0.980221 0.306979 6.82567e-23)
(0.986771 0.306729 1.24633e-22)
(0.99353 0.305924 0)
(1.00049 0.304525 4.06982e-21)
(1.00755 0.302481 -2.07481e-21)
(1.01462 0.299774 2.46717e-21)
(1.02165 0.296397 -2.50034e-21)
(1.02864 0.292326 8.17707e-21)
(1.03554 0.287549 0)
(1.04218 0.282104 0)
(1.04852 0.276037 1.57115e-22)
(1.05456 0.26933 -3.49811e-21)
(1.06026 0.262001 0)
(1.06557 0.254084 -1.46611e-22)
(1.07038 0.24569 3.72149e-21)
(1.07466 0.236898 -1.39565e-22)
(1.07843 0.227693 3.89619e-21)
(1.08166 0.218129 2.05785e-21)
(1.08433 0.208271 -4.02162e-21)
(1.08639 0.198242 -2.80129e-23)
(1.08784 0.188149 2.04281e-21)
(1.08868 0.178018 0)
(1.08891 0.167913 9.70068e-22)
(1.08852 0.157938 -1.07558e-21)
(1.08744 0.148201 -1.88272e-21)
(0.919153 0.272938 3.37794e-23)
(0.921865 0.275954 5.38525e-22)
(0.924643 0.278882 -6.79325e-23)
(0.927528 0.281727 3.6574e-22)
(0.930572 0.284487 1.21438e-22)
(0.933827 0.287176 5.73353e-23)
(0.937314 0.289746 -5.011e-23)
(0.941056 0.292202 0)
(0.945088 0.294519 3.77691e-22)
(0.949395 0.296628 0)
(0.954008 0.298534 0)
(0.958944 0.300198 0)
(0.964162 0.301533 1.55685e-21)
(0.969657 0.302516 0)
(0.975467 0.303131 1.02078e-22)
(0.981529 0.303295 -3.85941e-21)
(0.987776 0.302957 2.838e-21)
(0.994216 0.302099 1.62666e-21)
(1.00084 0.300681 0)
(1.00757 0.298656 -1.99106e-21)
(1.01429 0.296006 -2.30497e-21)
(1.02099 0.292721 -3.49977e-23)
(1.02766 0.288776 -2.76998e-21)
(1.03424 0.284161 2.5076e-21)
(1.04059 0.278903 2.82093e-21)