/*--------------------------------*- C++ -*----------------------------------*\
| =========                 |                                                 |
| \\      /  F ield         | OpenFOAM: The Open Source CFD Toolbox           |
|  \\    /   O peration     | Version:  3.0.1                                 |
|   \\  /    A nd           | Web:      www.OpenFOAM.org                      |
|    \\/     M anipulation  |                                                 |
\*---------------------------------------------------------------------------*/
FoamFile
{
    version     2.0;
    format      ascii;
    class       volScalarField;
    location    "100";
    object      nut;
}
// * * * * * * * * * * * * * * * * * * * * * * * * * * * * * * * * * * * * * //

dimensions      [0 2 -1 0 0 0 0];

internalField   nonuniform List<scalar> 
58000
(
0.00106813
0.000914765
0.000754494
0.000630856
0.000562548
0.000524615
0.000502541
0.000483508
0.000471743
0.000464613
0.000458949
0.000455804
0.000455224
0.000454795
0.000454967
0.000456353
0.000458886
0.000461957
0.000465283
0.000469068
0.000473441
0.000478021
0.000482767
0.000487443
0.000492463
0.000497252
0.000502028
0.00050673
0.000511197
0.000515764
0.000519974
0.000523838
0.000527243
0.000530178
0.000532755
0.0005342
0.000534402
0.000534217
0.000534026
0.000537192
0.00441405
0.00390564
0.0033767
0.00289824
0.00251473
0.00221227
0.00198293
0.00180284
0.0016688
0.00157109
0.00149583
0.00144144
0.00140174
0.00136799
0.00133577
0.00131209
0.00129647
0.00128379
0.0012728
0.00126638
0.00126494
0.00126532
0.00126678
0.00126927
0.00127524
0.00128144
0.00128782
0.0012945
0.00130153
0.0013105
0.0013197
0.00132572
0.00132934
0.00133154
0.00133324
0.00133217
0.00132949
0.00132734
0.00132783
0.00133873
0.00814008
0.00747865
0.00674211
0.00598081
0.00530342
0.00473263
0.00428862
0.00393017
0.00364553
0.00342778
0.00325548
0.00311582
0.00301417
0.00293585
0.0028696
0.00282109
0.00278863
0.0027646
0.00274608
0.0027363
0.002735
0.00273714
0.00274105
0.00274676
0.00275779
0.00276759
0.00277571
0.00278333
0.00279125
0.00280356
0.00281625
0.00282898
0.00284168
0.00285344
0.00286327
0.002868
0.00286878
0.00286926
0.00287324
0.00288743
0.0120852
0.0113171
0.0104237
0.00949527
0.00861849
0.00781613
0.00715153
0.00659285
0.00613669
0.00578061
0.00548726
0.00524818
0.00506917
0.00492854
0.00481107
0.00472397
0.00466317
0.00461702
0.00458097
0.00455924
0.00455096
0.0045487
0.00454678
0.00454685
0.00455738
0.00457124
0.00458579
0.00460118
0.00461739
0.00463819
0.00465822
0.00467687
0.00469467
0.00471236
0.00473106
0.00474327
0.00474937
0.00475361
0.00475984
0.00477098
0.0161232
0.0152873
0.0142997
0.0132579
0.0122357
0.0112752
0.0104361
0.00969717
0.00906948
0.00856445
0.00813861
0.00778462
0.00751356
0.00729669
0.00711347
0.00697443
0.00687399
0.00679555
0.00673208
0.00668939
0.00666498
0.00665032
0.0066419
0.00663919
0.00665245
0.00666861
0.00668503
0.00670277
0.00672313
0.00675413
0.00678355
0.00681062
0.00683591
0.00686083
0.00688841
0.00690838
0.00692021
0.00692805
0.00693473
0.006939
0.0201869
0.0193075
0.0182636
0.017146
0.0160342
0.0149573
0.0139886
0.013111
0.0123364
0.0116924
0.0111359
0.0106622
0.0102906
0.00998815
0.00972959
0.00952821
0.00937797
0.00925843
0.00915787
0.00908537
0.00904133
0.00901221
0.00899411
0.00898218
0.008989
0.00900446
0.00902328
0.00904582
0.00907053
0.00910608
0.0091441
0.00918219
0.00921694
0.00925057
0.00928734
0.00931549
0.00933347
0.00934482
0.00935084
0.00934645
0.0242311
0.023326
0.0222525
0.0210926
0.0199256
0.0187702
0.0177089
0.0167194
0.0158288
0.0150689
0.0143965
0.013808
0.0133356
0.0129441
0.0126068
0.0123366
0.0121286
0.0119579
0.0118154
0.0117105
0.0116438
0.0115942
0.0115571
0.0115336
0.0115365
0.0115495
0.0115671
0.0115896
0.0116194
0.0116618
0.0117075
0.0117546
0.0117982
0.0118408
0.011887
0.0119238
0.0119486
0.0119639
0.0119693
0.0119565
0.0282206
0.0273033
0.0262186
0.0250405
0.0238445
0.022642
0.0215159
0.0204492
0.0194683
0.0186079
0.0178334
0.0171475
0.016583
0.0161049
0.0156841
0.0153437
0.0150775
0.0148557
0.0146682
0.014527
0.0144285
0.0143555
0.0142996
0.0142624
0.0142541
0.0142621
0.0142791
0.0143016
0.0143323
0.0143818
0.014435
0.01449
0.0145423
0.0145944
0.0146506
0.0146969
0.0147295
0.0147499
0.0147561
0.0147374
0.0321281
0.0312088
0.0301263
0.0289466
0.0277408
0.0265166
0.0253519
0.0242335
0.0231834
0.0222505
0.0213946
0.0206211
0.0199732
0.0194156
0.0189186
0.0185101
0.0181872
0.0179131
0.0176776
0.0174945
0.0173637
0.0172662
0.0171886
0.0171323
0.0171134
0.0171137
0.0171244
0.0171469
0.0171788
0.0172331
0.0172921
0.0173523
0.0174149
0.0174777
0.0175448
0.0176016
0.0176433
0.0176709
0.0176809
0.0176606
0.0359319
0.035019
0.0339487
0.0327795
0.0315754
0.0303502
0.0291688
0.028021
0.0269259
0.0259379
0.0250163
0.024176
0.023459
0.0228314
0.0222652
0.0217917
0.0214082
0.021082
0.0208006
0.0205794
0.0204148
0.0202873
0.020188
0.0201124
0.0200776
0.0200697
0.0200743
0.0200934
0.020125
0.0201824
0.0202472
0.0203145
0.0203865
0.0204603
0.0205387
0.0206071
0.0206601
0.0206977
0.0207158
0.0207003
0.0396154
0.0387155
0.0376655
0.0365174
0.0353288
0.0341129
0.0329293
0.0317685
0.0306482
0.0296211
0.0286552
0.0277627
0.0269892
0.0263002
0.0256735
0.0251425
0.0247059
0.0243322
0.0240055
0.0237422
0.0235436
0.0233884
0.0232626
0.0231687
0.0231187
0.0230977
0.0230956
0.023108
0.023139
0.0231974
0.0232694
0.0233447
0.0234269
0.0235141
0.0236036
0.0236849
0.0237517
0.0238035
0.0238353
0.0238329
0.0431659
0.0422841
0.0412602
0.0401405
0.0389767
0.0377803
0.0366056
0.0354423
0.0343153
0.0332674
0.0322713
0.0313378
0.0305196
0.0297863
0.029111
0.0285306
0.0280456
0.0276239
0.0272544
0.0269551
0.0267234
0.0265369
0.0263867
0.02627
0.0262054
0.0261723
0.0261621
0.0261683
0.0261946
0.0262563
0.0263336
0.0264151
0.0265076
0.0266072
0.0267107
0.026808
0.0268925
0.0269636
0.0270162
0.0270366
0.0465745
0.0457145
0.0447209
0.0436347
0.0425024
0.0413337
0.0401782
0.0390256
0.0379015
0.0368456
0.0358333
0.0348745
0.0340244
0.0332547
0.0325396
0.031918
0.0313921
0.0309302
0.0305213
0.030184
0.0299223
0.0297078
0.0295308
0.029394
0.02931
0.0292631
0.0292457
0.029247
0.0292704
0.0293337
0.0294153
0.0295031
0.029605
0.0297174
0.029837
0.0299532
0.0300595
0.0301556
0.0302372
0.0302917
0.0498359
0.0490001
0.0480394
0.0469902
0.0458938
0.0447587
0.0436298
0.0424971
0.0413851
0.0403313
0.0393136
0.0383424
0.0374715
0.0366746
0.0359262
0.0352707
0.0347107
0.034217
0.033775
0.033405
0.0331114
0.0328722
0.0326724
0.0325156
0.0324139
0.0323519
0.0323225
0.03232
0.0323413
0.0324054
0.032491
0.0325854
0.0326955
0.0328233
0.0329614
0.0330995
0.033232
0.0333595
0.0334789
0.0335799
0.0529483
0.0521368
0.0512104
0.0502004
0.0491432
0.0480456
0.0469488
0.0458427
0.0447506
0.0437068
0.0426903
0.0417187
0.0408375
0.0400213
0.0392544
0.0385745
0.0379859
0.0374598
0.0369879
0.0365915
0.0362704
0.0360051
0.0357854
0.0356093
0.0354917
0.0354163
0.0353748
0.0353678
0.0353868
0.0354492
0.0355403
0.0356429
0.0357639
0.0359072
0.0360652
0.0362281
0.0363913
0.0365569
0.0367237
0.0368844
0.0559036
0.0551209
0.054231
0.0532619
0.0522458
0.0511886
0.0501276
0.0490531
0.0479871
0.0469611
0.0459555
0.0449893
0.0441059
0.0432819
0.0425035
0.0418072
0.0411973
0.0406462
0.0401473
0.039723
0.0393763
0.0390907
0.038851
0.0386525
0.0385214
0.0384381
0.0383873
0.0383723
0.0383911
0.0384535
0.0385463
0.0386588
0.0387922
0.038952
0.0391315
0.0393221
0.0395207
0.0397313
0.0399555
0.0401897
0.0587063
0.0579535
0.057101
0.0561736
0.0551999
0.0541848
0.0531621
0.0521228
0.0510874
0.0500848
0.049097
0.0481423
0.0472609
0.0464387
0.0456568
0.044951
0.0443263
0.0437561
0.0432333
0.0427889
0.0424207
0.0421121
0.0418541
0.0416423
0.041498
0.0414054
0.041346
0.0413243
0.0413416
0.041404
0.0414994
0.0416202
0.0417657
0.0419426
0.0421451
0.0423664
0.0426051
0.0428678
0.0431597
0.0434815
0.0613602
0.0606374
0.0598226
0.0589371
0.0580062
0.0570338
0.0560509
0.0550491
0.0540475
0.0530726
0.0521077
0.0511709
0.0502996
0.0494829
0.0487027
0.0479931
0.0473593
0.0467762
0.0462364
0.0457726
0.0453894
0.0450632
0.0447905
0.0445645
0.0444075
0.0443052
0.0442375
0.0442097
0.044225
0.0442872
0.0443854
0.0445139
0.0446714
0.0448659
0.0450931
0.0453478
0.0456313
0.0459533
0.046323
0.0467467
0.0638695
0.0631767
0.0623991
0.0615555
0.0606675
0.0597375
0.0587949
0.0578318
0.056866
0.0559218
0.0549838
0.0540694
0.0532135
0.0524069
0.0516332
0.0509244
0.0502858
0.0496955
0.0491449
0.0486676
0.0482721
0.0479298
0.0476404
0.0474051
0.0472372
0.0471254
0.0470503
0.047017
0.0470301
0.047092
0.0471928
0.0473287
0.0474983
0.0477108
0.0479641
0.048255
0.0485879
0.0489761
0.0494336
0.049973
0.0662391
0.0655761
0.0648348
0.0640324
0.0631888
0.0622992
0.0613966
0.0604727
0.0595441
0.0586326
0.0577241
0.0568353
0.0559986
0.0552063
0.0544431
0.053739
0.0530977
0.0525057
0.0519499
0.0514628
0.0510538
0.0507023
0.0504017
0.0501569
0.0499784
0.0498553
0.0497751
0.0497371
0.0497479
0.0498094
0.0499127
0.0500557
0.0502371
0.0504678
0.0507487
0.0510787
0.0514651
0.051926
0.0524809
0.0531493
0.068475
0.067841
0.0671349
0.0663718
0.0655693
0.0647216
0.0638592
0.0629749
0.0620842
0.0612068
0.0603299
0.059469
0.0586544
0.0578793
0.0571302
0.0564354
0.0557977
0.0552036
0.0546468
0.0541543
0.0537368
0.0533765
0.0530665
0.0528133
0.0526256
0.0524934
0.0524068
0.0523636
0.0523712
0.0524323
0.0525382
0.0526881
0.0528811
0.0531285
0.0534397
0.0538112
0.0542551
0.0547945
0.0554554
0.0562652
0.0705837
0.069978
0.0693058
0.0685803
0.067817
0.0670102
0.0661877
0.0653429
0.06449
0.0636477
0.062804
0.0619725
0.0611821
0.060426
0.0596934
0.0590113
0.058384
0.0577933
0.0572341
0.0567379
0.0563162
0.0559476
0.0556293
0.0553684
0.0551731
0.0550333
0.0549407
0.0548917
0.0548937
0.0549559
0.0550647
0.0552215
0.0554264
0.0556927
0.0560332
0.0564472
0.0569512
0.0575741
0.0583487
0.0593111
0.0725718
0.0719936
0.0713544
0.0706652
0.069939
0.0691714
0.068388
0.0675823
0.0667665
0.0659594
0.0651515
0.0643488
0.0635856
0.0628482
0.062133
0.061465
0.0608478
0.0602634
0.0597068
0.0592093
0.0587818
0.0584105
0.0580865
0.0578172
0.0576174
0.0574717
0.0573736
0.0573196
0.0573176
0.0573789
0.0574896
0.0576526
0.0578695
0.0581554
0.0585249
0.0589819
0.059548
0.0602584
0.0611535
0.0622783
0.074446
0.0738945
0.0732871
0.0726344
0.071942
0.0712117
0.0704662
0.0697003
0.0689191
0.0681455
0.0673707
0.0665988
0.0658622
0.065147
0.0644513
0.0637985
0.0631924
0.0626163
0.0620652
0.0615695
0.0611402
0.0607664
0.0604384
0.0601639
0.0599589
0.0598075
0.0597042
0.0596454
0.0596396
0.0596992
0.0598111
0.0599796
0.0602081
0.0605149
0.0609116
0.0614114
0.0620411
0.0628422
0.0638633
0.065159
0.0762129
0.075687
0.0751097
0.0744895
0.0738312
0.0731369
0.0724275
0.0716981
0.0709524
0.0702121
0.0694697
0.0687286
0.0680188
0.0673272
0.0666519
0.0660154
0.0654214
0.0648546
0.0643108
0.0638191
0.0633904
0.0630157
0.0626852
0.0624069
0.0621973
0.0620404
0.0619321
0.0618685
0.0618588
0.0619161
0.0620283
0.0622013
0.06244
0.0627648
0.0631896
0.0637328
0.0644272
0.0653213
0.0664727
0.0679462
0.0778788
0.0773778
0.0768308
0.0762395
0.0756136
0.0749541
0.0742796
0.0735845
0.0728734
0.0721659
0.0714552
0.0707448
0.070062
0.0693948
0.0687403
0.0681202
0.0675385
0.0669813
0.0664463
0.0659603
0.0655338
0.0651595
0.0648277
0.0645467
0.064333
0.064171
0.0640577
0.0639894
0.0639757
0.0640301
0.0641417
0.0643179
0.0645654
0.0649066
0.0653588
0.065945
0.0667042
0.0676927
0.0689775
0.070634
0.07945
0.0789725
0.078452
0.07789
0.0772954
0.0766697
0.0760306
0.0753671
0.0746892
0.074014
0.0733341
0.0726539
0.0719979
0.0713571
0.0707223
0.0701183
0.0695486
0.0689995
0.0684752
0.0679961
0.0675731
0.0672001
0.066868
0.0665851
0.0663678
0.066201
0.0660827
0.0660097
0.0659917
0.0660427
0.0661528
0.0663311
0.0665858
0.0669419
0.0674199
0.0680479
0.0688713
0.0699545
0.0713744
0.0732176
0.0809324
0.0804791
0.079982
0.0794475
0.0788832
0.0782897
0.0776821
0.0770508
0.0764057
0.0757636
0.0751125
0.0744631
0.0738311
0.0732141
0.0726031
0.0720148
0.0714576
0.0709181
0.0704028
0.0699305
0.0695115
0.0691407
0.068809
0.0685248
0.0683042
0.0681327
0.068009
0.0679318
0.0679095
0.0679563
0.068064
0.068243
0.0685035
0.0688725
0.0693745
0.0700425
0.0709286
0.0721058
0.0736611
0.075693
0.082331
0.0818989
0.081426
0.0809185
0.0803834
0.0798221
0.0792429
0.0786423
0.0780286
0.0774162
0.076794
0.076173
0.0755665
0.0749719
0.0743825
0.073814
0.0732703
0.0727392
0.0722326
0.0717674
0.0713529
0.0709847
0.070654
0.0703691
0.0701456
0.0699692
0.0698386
0.0697591
0.0697325
0.0697743
0.0698784
0.0700566
0.0703211
0.0707012
0.0712249
0.0719306
0.0728773
0.0741467
0.0758366
0.0780578
0.0836521
0.08324
0.0827905
0.0823091
0.0818016
0.0812688
0.0807183
0.0801477
0.0795659
0.0789803
0.0783859
0.0777917
0.0772119
0.0766377
0.0760675
0.0755151
0.0749841
0.0744646
0.073968
0.0735104
0.0731011
0.0727361
0.072407
0.0721219
0.071896
0.0717155
0.0715797
0.0714955
0.0714637
0.0714999
0.0715995
0.0717756
0.0720422
0.0724311
0.0729742
0.0737148
0.0747191
0.076078
0.0779006
0.0803104
0.0849018
0.0845087
0.0840817
0.0836259
0.0831458
0.082638
0.0821147
0.0815728
0.0810193
0.0804612
0.0798955
0.079325
0.0787684
0.0782172
0.077666
0.0771264
0.0766051
0.0760987
0.0756131
0.075164
0.0747604
0.0743991
0.0740721
0.0737873
0.0735594
0.0733752
0.0732347
0.0731453
0.0731077
0.0731375
0.0732313
0.0734036
0.0736705
0.074066
0.0746257
0.075398
0.0764566
0.0779016
0.0798539
0.0824504
0.0860854
0.0857105
0.0853051
0.0848745
0.0844173
0.0839347
0.0834379
0.082925
0.0823969
0.0818648
0.0813245
0.0807782
0.080243
0.0797109
0.0791772
0.0786537
0.078143
0.0776481
0.0771733
0.0767329
0.0763353
0.0759782
0.0756538
0.0753697
0.0751401
0.0749526
0.0748075
0.0747126
0.0746687
0.0746913
0.0747782
0.0749448
0.0752097
0.0756101
0.0761836
0.0769842
0.078093
0.0796199
0.0816982
0.0844786
0.087208
0.0868504
0.0864653
0.0860564
0.0856223
0.0851644
0.084693
0.0842058
0.083704
0.0831983
0.0826809
0.082159
0.0816439
0.0811274
0.0806084
0.0800966
0.0795999
0.0791171
0.0786533
0.0782218
0.0778308
0.0774782
0.0771567
0.0768736
0.0766426
0.076452
0.0763025
0.0762019
0.0761513
0.076166
0.0762448
0.0764032
0.0766658
0.0770685
0.0776526
0.0784775
0.079632
0.081236
0.0834357
0.0863965
0.0882745
0.0879335
0.087569
0.087179
0.0867669
0.0863332
0.085887
0.0854224
0.0849464
0.0844627
0.0839694
0.0834674
0.0829709
0.0824723
0.0819672
0.0814663
0.0809817
0.0805109
0.080058
0.0796356
0.0792514
0.0789036
0.0785853
0.0783036
0.0780715
0.0778781
0.0777242
0.0776178
0.0775602
0.0775666
0.0776367
0.077787
0.0780445
0.0784464
0.0790375
0.0798825
0.0810777
0.0827536
0.0850697
0.0882067
0.0892894
0.0889634
0.0886169
0.0882466
0.0878562
0.0874463
0.0870211
0.0865788
0.0861252
0.0856633
0.0851912
0.0847102
0.0842305
0.083746
0.0832511
0.0827646
0.0822929
0.0818342
0.0813924
0.0809792
0.080602
0.0802593
0.0799445
0.0796643
0.0794314
0.0792352
0.0790771
0.0789649
0.0789
0.0788976
0.0789586
0.0791001
0.0793503
0.0797487
0.0803432
0.0812039
0.0824347
0.0841767
0.0866035
0.0899123
0.0902576
0.0899453
0.0896151
0.0892642
0.0888953
0.0885049
0.0881011
0.0876818
0.087248
0.0868077
0.086354
0.0858884
0.0854227
0.0849494
0.0844694
0.083997
0.0835383
0.0830918
0.0826612
0.0822574
0.0818874
0.08155
0.0812389
0.0809605
0.0807269
0.0805282
0.0803658
0.0802477
0.0801752
0.0801638
0.080215
0.0803466
0.0805879
0.0809802
0.0815746
0.0824465
0.0837073
0.0855095
0.0880412
0.091517
0.0911835
0.0908836
0.0905685
0.0902364
0.0898849
0.0895144
0.0891322
0.0887321
0.0883192
0.0878968
0.0874582
0.0870092
0.0865563
0.0860939
0.0856274
0.0851687
0.084723
0.0842886
0.0838692
0.083475
0.0831124
0.0827805
0.0824732
0.0821967
0.0819626
0.0817615
0.0815949
0.0814706
0.0813903
0.0813696
0.0814105
0.0815313
0.0817621
0.0821458
0.0827366
0.0836151
0.0849006
0.0867567
0.0893871
0.0930249
0.0920718
0.0917827
0.0914805
0.0911642
0.0908303
0.0904799
0.0901154
0.0897352
0.0893397
0.0889316
0.0885092
0.0880733
0.0876298
0.0871817
0.0867295
0.0862845
0.0858517
0.0854295
0.0850214
0.0846368
0.0842817
0.0839554
0.083652
0.0833775
0.083143
0.0829395
0.0827687
0.0826382
0.0825491
0.0825194
0.0825498
0.0826589
0.0828776
0.0832504
0.0838342
0.0847149
0.0860193
0.0879228
0.0906456
0.0944405
0.0929269
0.0926472
0.0923561
0.0920533
0.0917366
0.0914023
0.0910563
0.0906927
0.0903112
0.0899179
0.0895084
0.0890822
0.0886526
0.0882186
0.0877806
0.0873494
0.0869293
0.0865192
0.0861223
0.0857474
0.0854001
0.0850794
0.0847799
0.0845073
0.0842725
0.0840667
0.0838918
0.0837552
0.0836579
0.0836184
0.0836375
0.083734
0.0839394
0.0842989
0.0848724
0.0857506
0.0870682
0.0890126
0.0918212
0.0957682
0.0937531
0.0934816
0.0931997
0.0929079
0.0926047
0.0922869
0.0919565
0.0916066
0.0912402
0.0908573
0.090458
0.0900458
0.08963
0.0892098
0.0887859
0.0883681
0.0879606
0.0875624
0.0871765
0.0868115
0.0864724
0.086157
0.0858611
0.0855904
0.0853551
0.0851472
0.0849683
0.0848256
0.0847203
0.0846707
0.084678
0.0847613
0.0849522
0.0852961
0.0858559
0.0867271
0.0880521
0.0900309
0.0929187
0.0970127
0.0945547
0.0942902
0.0940161
0.0937332
0.0934404
0.0931349
0.0928178
0.0924832
0.0921303
0.0917574
0.0913694
0.0909701
0.0905674
0.0901607
0.0897503
0.0893455
0.0889502
0.0885636
0.0881885
0.0878334
0.087504
0.0871924
0.0868996
0.0866307
0.0863951
0.086185
0.0860021
0.0858534
0.0857401
0.0856801
0.0856753
0.0857448
0.0859217
0.0862466
0.0867892
0.087649
0.0889759
0.0909822
0.0939425
0.0981785
0.095336
0.0950775
0.0948099
0.0945343
0.0942499
0.093954
0.0936476
0.0933249
0.0929842
0.0926229
0.0922468
0.09186
0.0914701
0.0910761
0.0906787
0.0902864
0.0899028
0.0895272
0.0891625
0.0888164
0.0884946
0.0881883
0.0878992
0.0876322
0.0873963
0.087184
0.0869971
0.0868423
0.0867208
0.0866504
0.086633
0.0866878
0.0868477
0.0871532
0.0876763
0.0885207
0.089844
0.0918714
0.0948972
0.0992702
0.0961011
0.0958476
0.0955856
0.0953161
0.0950386
0.0947505
0.0944528
0.09414
0.0938099
0.0934598
0.0930954
0.0927207
0.0923427
0.0919609
0.0915758
0.0911952
0.0908228
0.0904577
0.0901027
0.0897651
0.0894501
0.0891491
0.0888637
0.0885988
0.0883626
0.088148
0.0879569
0.0877958
0.0876661
0.0875851
0.0875548
0.0875943
0.0877358
0.0880205
0.0885216
0.0893469
0.0906613
0.0927029
0.0957874
0.100292
0.096854
0.0966049
0.0963474
0.096083
0.0958112
0.0955297
0.0952392
0.0949347
0.0946139
0.094274
0.0939204
0.0935569
0.0931902
0.0928198
0.0924461
0.0920766
0.0917146
0.0913594
0.0910137
0.0906841
0.0903752
0.090079
0.0897973
0.0895348
0.0892979
0.0890807
0.0888851
0.0887172
0.0885794
0.0884878
0.0884446
0.0884681
0.0885904
0.0888528
0.0893296
0.0901321
0.0914322
0.0934814
0.0966175
0.101249
0.097599
0.0973534
0.0970998
0.0968395
0.0965723
0.0962962
0.0960118
0.0957143
0.0954016
0.0950708
0.0947269
0.0943736
0.0940173
0.0936573
0.0932941
0.0929348
0.0925824
0.0922365
0.0918995
0.0915778
0.0912742
0.090982
0.0907037
0.0904448
0.0902056
0.0899852
0.0897852
0.0896091
0.0894639
0.089362
0.0893058
0.0893132
0.0894156
0.0896543
0.0901046
0.0908807
0.0921613
0.0942113
0.0973918
0.102144
0.0983405
0.0980977
0.097847
0.09759
0.0973265
0.0970547
0.0967753
0.0964837
0.0961778
0.0958549
0.0955196
0.0951755
0.0948284
0.0944778
0.0941241
0.0937741
0.0934305
0.093093
0.0927642
0.0924511
0.0921508
0.0918616
0.0915857
0.0913281
0.0910877
0.0908647
0.0906615
0.0904775
0.0903238
0.0902114
0.0901421
0.0901332
0.0902151
0.090429
0.0908507
0.091597
0.092853
0.0948971
0.0981146
0.102983
0.0990828
0.0988421
0.0985935
0.0983389
0.0980783
0.0978098
0.0975344
0.0972476
0.0969474
0.0966312
0.0963033
0.0959672
0.0956282
0.0952858
0.0949406
0.0945987
0.0942629
0.0939329
0.093611
0.0933039
0.0930075
0.0927212
0.092447
0.0921898
0.091948
0.0917217
0.0915123
0.0913233
0.0911619
0.0910391
0.0909569
0.090932
0.0909928
0.0911807
0.0915718
0.0922851
0.0935115
0.095543
0.09879
0.103768
0.0998307
0.0995913
0.099344
0.099091
0.0988322
0.0985661
0.0982936
0.0980105
0.0977149
0.0974042
0.0970826
0.0967531
0.096421
0.0960858
0.0957478
0.095413
0.095084
0.0947605
0.0944445
0.094142
0.0938488
0.0935647
0.0932917
0.0930341
0.0927903
0.0925605
0.092346
0.0921509
0.0919816
0.0918484
0.0917535
0.0917139
0.0917521
0.0919127
0.0922715
0.0929488
0.0941411
0.0961534
0.099422
0.104504
0.100589
0.10035
0.100103
0.0998508
0.099593
0.0993283
0.0990577
0.0987772
0.098485
0.0981786
0.097862
0.097538
0.0972115
0.0968821
0.0965502
0.0962213
0.0958981
0.0955801
0.0952694
0.0949699
0.0946787
0.094396
0.094124
0.0938649
0.0936184
0.0933846
0.0931649
0.0929635
0.0927861
0.0926424
0.0925343
0.0924782
0.0924946
0.0926279
0.0929532
0.0935921
0.0947458
0.0967322
0.100015
0.105194
0.101362
0.101123
0.100876
0.100623
0.100365
0.100101
0.0998314
0.0995524
0.0992625
0.0989593
0.0986463
0.0983264
0.0980042
0.0976794
0.0973522
0.0970281
0.0967095
0.0963963
0.0960909
0.0957919
0.0955011
0.0952189
0.0949483
0.0946858
0.0944354
0.0941971
0.0939721
0.0937641
0.0935786
0.0934241
0.0933025
0.0932293
0.0932239
0.0933296
0.0936205
0.0942187
0.0953295
0.0972837
0.100572
0.105843
0.102155
0.101915
0.101667
0.101413
0.101154
0.100889
0.100619
0.100341
0.100052
0.0997509
0.0994404
0.0991232
0.0988039
0.0984822
0.0981584
0.0978377
0.0975226
0.097213
0.0969096
0.0966108
0.0963196
0.0960366
0.0957645
0.0954991
0.0952446
0.0950012
0.0947706
0.0945562
0.0943628
0.0941972
0.0940614
0.0939707
0.0939436
0.0940214
0.0942769
0.0948323
0.0958965
0.097812
0.101098
0.106452
0.102971
0.102729
0.102479
0.102223
0.101963
0.101697
0.101426
0.101147
0.100858
0.100558
0.100249
0.0999329
0.0996152
0.0992952
0.0989735
0.0986549
0.098342
0.0980357
0.0977312
0.0974313
0.0971385
0.0968531
0.096578
0.0963089
0.0960498
0.0958002
0.0955641
0.0953433
0.0951431
0.0949647
0.0948138
0.0947058
0.0946568
0.0947066
0.0949261
0.0954369
0.0964507
0.0983213
0.101596
0.107026
0.103814
0.10357
0.103317
0.103059
0.102796
0.102528
0.102255
0.101975
0.101685
0.101385
0.101075
0.10076
0.100442
0.100123
0.0998018
0.0994839
0.0991716
0.0988654
0.0985596
0.0982576
0.097962
0.0976731
0.0973932
0.0971197
0.0968555
0.0965998
0.0963568
0.0961288
0.0959193
0.095729
0.0955638
0.0954382
0.0953673
0.0953887
0.0955715
0.0960361
0.0969961
0.0988157
0.102071
0.107568
0.104686
0.10444
0.104184
0.103923
0.103657
0.103385
0.103109
0.102827
0.102536
0.102235
0.101924
0.101607
0.101289
0.100969
0.100647
0.100329
0.100016
0.0997081
0.0993995
0.0990943
0.0987948
0.098501
0.098214
0.0979359
0.0976659
0.0974038
0.097154
0.0969176
0.0966974
0.0964945
0.0963146
0.0961713
0.0960782
0.0960712
0.0962168
0.0966339
0.0975367
0.0992993
0.102526
0.108082
0.10559
0.105341
0.105082
0.104817
0.104547
0.104272
0.103993
0.103707
0.103414
0.103113
0.102799
0.102479
0.102159
0.101837
0.101514
0.101195
0.100881
0.100568
0.100255
0.0999457
0.0996415
0.099342
0.0990481
0.0987629
0.0984852
0.0982159
0.09796
0.0977139
0.097481
0.0972646
0.0970697
0.0969085
0.0967932
0.0967575
0.0968656
0.0972339
0.0980768
0.0997765
0.102965
0.108571
0.106527
0.106274
0.106011
0.105742
0.105469
0.10519
0.104907
0.104617
0.104321
0.104017
0.1037
0.103377
0.103054
0.10273
0.102405
0.102083
0.101766
0.101448
0.10113
0.100815
0.100506
0.1002
0.0998981
0.0996044
0.0993169
0.0990395
0.0987748
0.0985182
0.0982723
0.0980423
0.0978328
0.0976535
0.0975157
0.0974513
0.0975215
0.0978399
0.0986201
0.100251
0.103394
0.109038
0.107494
0.107238
0.106972
0.1067
0.106422
0.106139
0.105852
0.105558
0.105258
0.104951
0.10463
0.104304
0.103978
0.10365
0.103322
0.102998
0.102675
0.102351
0.102027
0.101707
0.101393
0.101078
0.100767
0.100464
0.100166
0.0998792
0.0996039
0.0993358
0.0990771
0.0988331
0.0986084
0.0984103
0.0982496
0.098156
0.0981879
0.0984557
0.0991709
0.100729
0.103815
0.109486
0.108491
0.108232
0.107963
0.107687
0.107406
0.107119
0.106828
0.10653
0.106226
0.105915
0.10559
0.105261
0.104931
0.1046
0.104268
0.103939
0.103609
0.103279
0.102948
0.102621
0.102301
0.101977
0.101657
0.101344
0.101036
0.100738
0.100451
0.100171
0.0998988
0.0996404
0.099401
0.0991825
0.0989979
0.0988749
0.0988684
0.0990849
0.0997332
0.101212
0.104233
0.10992
0.109514
0.109253
0.108982
0.108703
0.108418
0.108127
0.107833
0.107532
0.107224
0.106908
0.10658
0.106247
0.105913
0.105579
0.105244
0.104908
0.104571
0.104233
0.103896
0.103563
0.103234
0.102901
0.102571
0.102246
0.101929
0.10162
0.101321
0.101027
0.100741
0.100467
0.10021
0.099972
0.0997637
0.0996112
0.0995664
0.0997313
0.100311
0.101706
0.104652
0.110341
0.110559
0.110296
0.110023
0.109742
0.109455
0.109162
0.108864
0.10856
0.108248
0.10793
0.107599
0.107262
0.106924
0.106588
0.106246
0.105903
0.105559
0.105215
0.104872
0.104533
0.104194
0.103851
0.103512
0.103176
0.102847
0.102527
0.102215
0.101907
0.101605
0.101315
0.101041
0.100782
0.10055
0.100368
0.100285
0.100398
0.100908
0.102216
0.105077
0.110755
0.11162
0.111357
0.111083
0.110801
0.110512
0.110217
0.109917
0.109611
0.109297
0.108976
0.108642
0.108302
0.107961
0.107619
0.107273
0.106924
0.106575
0.106224
0.105875
0.105528
0.10518
0.104829
0.104479
0.104133
0.103794
0.103461
0.103135
0.102812
0.102495
0.102189
0.101896
0.101616
0.10136
0.101149
0.101028
0.101089
0.101528
0.102744
0.105512
0.111164
0.112692
0.112429
0.112156
0.111873
0.111585
0.111289
0.110988
0.11068
0.110365
0.110042
0.109707
0.109365
0.109019
0.108674
0.108323
0.10797
0.107615
0.107259
0.106905
0.106549
0.106192
0.105834
0.105474
0.105118
0.104769
0.104425
0.104082
0.103744
0.103411
0.103089
0.102777
0.102476
0.102196
0.101956
0.101797
0.101808
0.102175
0.103297
0.105962
0.111572
0.113768
0.113507
0.113235
0.112954
0.112666
0.112371
0.11207
0.111763
0.111447
0.111125
0.110789
0.110445
0.110097
0.109746
0.109394
0.109037
0.108677
0.108316
0.107956
0.107593
0.107229
0.106863
0.106494
0.10613
0.10577
0.105412
0.105055
0.104702
0.104353
0.104015
0.103684
0.103363
0.10306
0.102791
0.102596
0.102556
0.102853
0.103877
0.106431
0.111983
0.114843
0.114585
0.114315
0.114037
0.113751
0.113458
0.113159
0.112852
0.112538
0.112217
0.111884
0.111539
0.111189
0.110836
0.110481
0.110121
0.109758
0.109392
0.109027
0.108658
0.108287
0.107914
0.107538
0.107165
0.106793
0.106423
0.106053
0.105686
0.105322
0.104968
0.104619
0.104278
0.103952
0.103656
0.103426
0.103337
0.103563
0.104488
0.106923
0.112401
0.115912
0.115657
0.115391
0.115116
0.114834
0.114544
0.114247
0.113943
0.113631
0.113312
0.112982
0.112638
0.112289
0.111936
0.11158
0.111219
0.110853
0.110484
0.110114
0.10974
0.109364
0.108985
0.108603
0.108222
0.10784
0.107458
0.107076
0.106695
0.106317
0.105948
0.105582
0.105222
0.104875
0.104553
0.104288
0.104152
0.104309
0.105134
0.107443
0.112828
0.116969
0.116719
0.116457
0.116187
0.115909
0.115623
0.11533
0.11503
0.114722
0.114406
0.114079
0.113739
0.113392
0.11304
0.112685
0.112324
0.111958
0.111586
0.111212
0.110836
0.110456
0.110072
0.109685
0.109296
0.108906
0.108515
0.108122
0.10773
0.107339
0.106954
0.106573
0.106195
0.105827
0.10548
0.105184
0.105002
0.105092
0.105816
0.107992
0.113268
0.11801
0.117766
0.11751
0.117244
0.116972
0.116691
0.116403
0.116108
0.115805
0.115494
0.115172
0.114835
0.114492
0.114144
0.11379
0.113431
0.113066
0.112695
0.112318
0.111941
0.111559
0.111172
0.110781
0.110386
0.10999
0.10959
0.109189
0.108786
0.108383
0.107986
0.10759
0.107196
0.106809
0.106439
0.106112
0.105888
0.105912
0.106537
0.108575
0.113724
0.119033
0.118794
0.118544
0.118285
0.118018
0.117743
0.117462
0.117172
0.116875
0.11657
0.116254
0.115924
0.115586
0.115241
0.114891
0.114535
0.114172
0.113803
0.113428
0.11305
0.112667
0.112279
0.111885
0.111486
0.111085
0.11068
0.110272
0.109861
0.109449
0.109041
0.108632
0.108223
0.107818
0.107427
0.107072
0.106807
0.10677
0.107296
0.109193
0.114199
0.120034
0.119801
0.119558
0.119305
0.119045
0.118778
0.118503
0.11822
0.117929
0.117631
0.117322
0.117
0.116668
0.116328
0.115982
0.115631
0.115273
0.114907
0.114535
0.114157
0.113776
0.113389
0.112994
0.112594
0.112189
0.111781
0.111368
0.11095
0.110532
0.110115
0.109695
0.109273
0.108853
0.108442
0.108061
0.10776
0.107664
0.108095
0.109847
0.114695
0.121011
0.120785
0.120549
0.120304
0.120051
0.11979
0.119523
0.119247
0.118964
0.118673
0.118372
0.11806
0.117734
0.117401
0.117061
0.116716
0.116363
0.116003
0.115634
0.11526
0.114882
0.114496
0.114103
0.113703
0.113298
0.112887
0.112471
0.11205
0.111629
0.111204
0.110775
0.110342
0.109909
0.109481
0.109078
0.108743
0.108592
0.108932
0.110538
0.115214
0.121963
0.121745
0.121515
0.121278
0.121033
0.12078
0.12052
0.120253
0.119977
0.119694
0.119402
0.119099
0.118782
0.118456
0.118123
0.117785
0.117439
0.117085
0.116722
0.116353
0.115979
0.115597
0.115207
0.11481
0.114405
0.113995
0.113578
0.113157
0.112733
0.112303
0.111867
0.111426
0.110982
0.110541
0.110118
0.109752
0.109552
0.109804
0.111265
0.115755
0.122891
0.122679
0.122457
0.122227
0.12199
0.121745
0.121494
0.121234
0.120967
0.120693
0.120409
0.120115
0.119807
0.119491
0.119166
0.118835
0.118497
0.11815
0.117795
0.117432
0.117063
0.116687
0.116302
0.115909
0.115508
0.1151
0.114685
0.114264
0.11384
0.113407
0.112968
0.112521
0.112068
0.111616
0.111177
0.110786
0.11054
0.110709
0.112027
0.11632
0.123792
0.123587
0.123373
0.123151
0.122922
0.122686
0.122442
0.122191
0.121933
0.121667
0.121392
0.121108
0.120811
0.120504
0.120187
0.119864
0.119535
0.119197
0.11885
0.118495
0.118132
0.117763
0.117384
0.116996
0.116601
0.116197
0.115786
0.11537
0.114945
0.114512
0.114071
0.113621
0.113163
0.112703
0.11225
0.111837
0.111551
0.111644
0.112821
0.116908
0.124667
0.12447
0.124264
0.12405
0.123829
0.1236
0.123365
0.123123
0.122873
0.122616
0.122351
0.122077
0.121792
0.121493
0.121186
0.120872
0.120552
0.120223
0.119885
0.119538
0.119184
0.118821
0.11845
0.11807
0.11768
0.117283
0.116877
0.116465
0.116044
0.115614
0.115173
0.114722
0.114262
0.113796
0.113334
0.112903
0.112582
0.112604
0.113644
0.117518
0.125517
0.125327
0.125128
0.124922
0.124709
0.124489
0.124263
0.124029
0.123788
0.123541
0.123285
0.12302
0.122746
0.122458
0.12216
0.121856
0.121545
0.121226
0.120898
0.120561
0.120215
0.119861
0.119498
0.119126
0.118744
0.118354
0.117954
0.11755
0.117134
0.116707
0.116269
0.11582
0.11536
0.114892
0.114423
0.113978
0.113627
0.113584
0.114492
0.118149
0.126342
0.126159
0.125968
0.125769
0.125565
0.125353
0.125135
0.12491