/*--------------------------------*- C++ -*----------------------------------*\
| =========                 |                                                 |
| \\      /  F ield         | OpenFOAM: The Open Source CFD Toolbox           |
|  \\    /   O peration     | Version:  3.0.1                                 |
|   \\  /    A nd           | Web:      www.OpenFOAM.org                      |
|    \\/     M anipulation  |                                                 |
\*---------------------------------------------------------------------------*/
FoamFile
{
    version     2.0;
    format      ascii;
    class       volScalarField;
    location    "100";
    object      p;
}
// * * * * * * * * * * * * * * * * * * * * * * * * * * * * * * * * * * * * * //

dimensions      [0 2 -2 0 0 0 0];

internalField   nonuniform List<scalar> 
58000
(
0.466452
0.226329
0.00129224
-0.164494
-0.276473
-0.357261
-0.415955
-0.460316
-0.494797
-0.51794
-0.534031
-0.545451
-0.552055
-0.556418
-0.560485
-0.563617
-0.564956
-0.565994
-0.567202
-0.567951
-0.567515
-0.566918
-0.56655
-0.566055
-0.564786
-0.562804
-0.561102
-0.559537
-0.557779
-0.555503
-0.552845
-0.550541
-0.548462
-0.546389
-0.544134
-0.540387
-0.532822
-0.524318
-0.518443
-0.515449
0.464652
0.383405
0.287227
0.175714
0.0620047
-0.0434107
-0.132554
-0.211569
-0.277847
-0.331858
-0.377357
-0.413619
-0.440427
-0.461036
-0.476959
-0.488478
-0.497084
-0.503864
-0.509147
-0.512992
-0.515749
-0.517897
-0.519436
-0.520399
-0.520616
-0.520607
-0.520305
-0.519671
-0.518692
-0.517297
-0.515902
-0.514391
-0.512674
-0.510675
-0.508268
-0.505531
-0.502076
-0.498569
-0.496686
-0.497453
0.346303
0.294047
0.235129
0.163861
0.0863718
0.00640235
-0.0704536
-0.140777
-0.205701
-0.260924
-0.308416
-0.349257
-0.381859
-0.407632
-0.429008
-0.44601
-0.458943
-0.469152
-0.47751
-0.484212
-0.489288
-0.493114
-0.496127
-0.498487
-0.500198
-0.501145
-0.50159
-0.501675
-0.501438
-0.500933
-0.500041
-0.498873
-0.497494
-0.495899
-0.494099
-0.492032
-0.489613
-0.486994
-0.48464
-0.482693
0.296689
0.263491
0.225481
0.177869
0.123008
0.0625838
-6.03162e-05
-0.0615013
-0.121477
-0.175837
-0.225336
-0.269888
-0.307366
-0.338717
-0.365782
-0.387985
-0.40559
-0.420065
-0.432165
-0.441957
-0.449639
-0.455799
-0.460851
-0.464911
-0.467983
-0.47022
-0.471865
-0.472991
-0.473624
-0.473813
-0.473636
-0.473149
-0.472365
-0.471286
-0.469944
-0.468417
-0.466742
-0.464948
-0.463191
-0.461644
0.244057
0.220612
0.195094
0.162848
0.124471
0.0801432
0.0310497
-0.0192079
-0.0710831
-0.12039
-0.167014
-0.210854
-0.249478
-0.28292
-0.312826
-0.338363
-0.359255
-0.376861
-0.391934
-0.40446
-0.414527
-0.42275
-0.429653
-0.435369
-0.439931
-0.443407
-0.446155
-0.448268
-0.44979
-0.450806
-0.451322
-0.451459
-0.451248
-0.450712
-0.449915
-0.448909
-0.447746
-0.446421
-0.444962
-0.443407
0.20684
0.188502
0.169279
0.145513
0.117265
0.0841389
0.0459467
0.00566301
-0.0377462
-0.080729
-0.122737
-0.163661
-0.201147
-0.234643
-0.265483
-0.292685
-0.315607
-0.335404
-0.352709
-0.367397
-0.379464
-0.389528
-0.398128
-0.40537
-0.411276
-0.415931
-0.419759
-0.422848
-0.425245
-0.427027
-0.428223
-0.42899
-0.429359
-0.429358
-0.429054
-0.428508
-0.427783
-0.426857
-0.425718
-0.424394
0.17657
0.161566
0.146211
0.127632
0.105801
0.0802283
0.0501091
0.0178456
-0.0180106
-0.0546581
-0.0914245
-0.128332
-0.163311
-0.195413
-0.225711
-0.253221
-0.277019
-0.298027
-0.316752
-0.33298
-0.346582
-0.358114
-0.368118
-0.376669
-0.38378
-0.389506
-0.394318
-0.398308
-0.401522
-0.404038
-0.405887
-0.407253
-0.408172
-0.408678
-0.408841
-0.408716
-0.408374
-0.407788
-0.406932
-0.405817
0.152416
0.139556
0.12661
0.111314
0.0936406
0.0731345
0.0488127
0.0226049
-0.00708426
-0.0381184
-0.0698629
-0.102491
-0.134306
-0.164177
-0.192971
-0.219783
-0.243533
-0.264921
-0.284326
-0.301463
-0.316093
-0.328689
-0.33977
-0.349369
-0.357475
-0.364114
-0.369783
-0.374569
-0.378517
-0.381697
-0.384141
-0.386057
-0.387481
-0.388454
-0.38904
-0.389295
-0.389291
-0.389006
-0.388406
-0.387501
0.132745
0.121403
0.110082
0.0969773
0.0820916
0.0650461
0.0448739
0.0231426
-0.00170439
-0.0280647
-0.0553957
-0.0839805
-0.112494
-0.139776
-0.166544
-0.192022
-0.215063
-0.236177
-0.255642
-0.273131
-0.288323
-0.301592
-0.31341
-0.323774
-0.332648
-0.340021
-0.346398
-0.351853
-0.35643
-0.360188
-0.363155
-0.365558
-0.367434
-0.368825
-0.369787
-0.370375
-0.370668
-0.370644
-0.370269
-0.369555
0.116562
0.106341
0.0961804
0.0846186
0.0716821
0.0570655
0.0399039
0.0214802
0.00036417
-0.0222261
-0.0458476
-0.0708525
-0.0962336
-0.120894
-0.145439
-0.169232
-0.19114
-0.211529
-0.230592
-0.247991
-0.263345
-0.276934
-0.289174
-0.300028
-0.309443
-0.317365
-0.324289
-0.330278
-0.335367
-0.339605
-0.343016
-0.345837
-0.348102
-0.349853
-0.35114
-0.352015
-0.352561
-0.352761
-0.352578
-0.352033
0.103107
0.0937534
0.0844659
0.0740448
0.0625317
0.049682
0.0347504
0.0187999
0.000562263
-0.0190237
-0.0396057
-0.0615544
-0.0841155
-0.106304
-0.128637
-0.150614
-0.171167
-0.190553
-0.208902
-0.225881
-0.241079
-0.254695
-0.267088
-0.278188
-0.287931
-0.296222
-0.303537
-0.309923
-0.315408
-0.320027
-0.323798
-0.326961
-0.329548
-0.331598
-0.333157
-0.334271
-0.335026
-0.335412
-0.335391
-0.334993
0.0918214
0.0831618
0.074561
0.0650212
0.054592
0.0430741
0.0298391
0.0157728
-0.000226837
-0.0174188
-0.0355278
-0.0549161
-0.0750168
-0.0949715
-0.115231
-0.135403
-0.154518
-0.172754
-0.190197
-0.206533
-0.221344
-0.234758
-0.247084
-0.258228
-0.268112
-0.27661
-0.284169
-0.290825
-0.296592
-0.301496
-0.305545
-0.308975
-0.311817
-0.314105
-0.31588
-0.317185
-0.318109
-0.318644
-0.318754
-0.318481
0.0822775
0.0741918
0.0661538
0.0573206
0.0477473
0.0372698
0.0253593
0.0127604
-0.00147422
-0.0167466
-0.0328409
-0.0500974
-0.0680893
-0.0860768
-0.10445
-0.122911
-0.140595
-0.15763
-0.174074
-0.189634
-0.203897
-0.216943
-0.229035
-0.24006
-0.249933
-0.2585
-0.266175
-0.272982
-0.278929
-0.284027
-0.288274
-0.2919
-0.294931
-0.297399
-0.299339
-0.300792
-0.301845
-0.302494
-0.302706
-0.30254
0.0741469
0.0665489
0.0589868
0.05074
0.0418655
0.0322251
0.0213769
0.00994995
-0.00286878
-0.0165847
-0.031028
-0.0465101
-0.0627024
-0.0789744
-0.0956691
-0.112558
-0.12888
-0.144729
-0.160142
-0.174856
-0.188478
-0.201044
-0.212778
-0.22356
-0.233299
-0.241823
-0.249509
-0.256368
-0.262401
-0.267611
-0.271981
-0.275736
-0.278898
-0.281492
-0.283551
-0.285109
-0.286254
-0.286986
-0.287276
-0.287198
0.0671732
0.0599992
0.0528509
0.0451039
0.0368161
0.0278702
0.0178942
0.00742528
-0.00423521
-0.0166722
-0.0297504
-0.0437477
-0.0584069
-0.0731929
-0.0884078
-0.103877
-0.118935
-0.133651
-0.14805
-0.161897
-0.174825
-0.186842
-0.19814
-0.208588
-0.218098
-0.226488
-0.234099
-0.240929
-0.24697
-0.25222
-0.25665
-0.260475
-0.263713
-0.266386
-0.26852
-0.270145
-0.27135
-0.272137
-0.272481
-0.272477
0.0611544
0.0543563
0.0475756
0.0402647
0.0324814
0.0241246
0.014881
0.00521242
-0.00548488
-0.0168547
-0.0287904
-0.0415379
-0.0548877
-0.0683877
-0.0823056
-0.096503
-0.110402
-0.124058
-0.137486
-0.150478
-0.162696
-0.17413
-0.184939
-0.194994
-0.204211
-0.212398
-0.219864
-0.226597
-0.232583
-0.237813
-0.242249
-0.246093
-0.24936
-0.252068
-0.254238
-0.255898
-0.257133
-0.25795
-0.25833
-0.258386
0.0559283
0.0494683
0.0430205
0.0360973
0.0287568
0.0209111
0.0122937
0.00330631
-0.00657558
-0.0170429
-0.0280099
-0.0396935
-0.0519205
-0.0643057
-0.0770852
-0.0901504
-0.102998
-0.115674
-0.128189
-0.140358
-0.151873
-0.162711
-0.173007
-0.182635
-0.191514
-0.199448
-0.206716
-0.213301
-0.219179
-0.224339
-0.228735
-0.232555
-0.235811
-0.238517
-0.240691
-0.242357
-0.243598
-0.244424
-0.244823
-0.244928
0.0513641
0.0452124
0.0390698
0.0324973
0.0255522
0.0181572
0.0100851
0.00168804
-0.00749358
-0.0171865
-0.0273218
-0.0380914
-0.0493482
-0.0607617
-0.0725417
-0.0845999
-0.0964978
-0.108276
-0.119942
-0.131332
-0.142167
-0.152415
-0.16219
-0.171373
-0.179886
-0.187533
-0.194565
-0.20096
-0.20669
-0.211741
-0.216059
-0.219821
-0.223033
-0.225705
-0.227856
-0.229503
-0.23073
-0.231548
-0.231951
-0.232095
0.0473565
0.0414887
0.0356289
0.0293773
0.02279
0.0157993
0.00820862
0.000330568
-0.00824025
-0.0172606
-0.0266738
-0.0366495
-0.0470612
-0.0576229
-0.0685211
-0.079684
-0.090727
-0.101686
-0.112569
-0.12323
-0.133415
-0.143088
-0.152348
-0.16108
-0.169211
-0.176549
-0.183319
-0.189497
-0.195049
-0.19996
-0.204171
-0.207845
-0.210986
-0.2136
-0.215705
-0.217314
-0.218509
-0.219305
-0.2197
-0.219873
0.0438198
0.0382158
0.03262
0.0266649
0.0204055
0.0137811
0.00662144
-0.000794026
-0.00882607
-0.0172548
-0.0260338
-0.0353138
-0.0449831
-0.0547928
-0.0649099
-0.0752741
-0.0855474
-0.0957625
-0.105924
-0.115906
-0.125477
-0.134598
-0.143356
-0.15164
-0.159385
-0.166402
-0.172895
-0.178836
-0.184188
-0.188936
-0.193017
-0.196581
-0.199629
-0.202165
-0.204205
-0.205762
-0.206912
-0.207672
-0.20805
-0.208243
0.0406829
0.0353261
0.0299786
0.0242996
0.0183431
0.0120551
0.00528508
-0.00171391
-0.00926485
-0.0171682
-0.0253847
-0.0340487
-0.0430612
-0.0522032
-0.061624
-0.071273
-0.0808521
-0.0903904
-0.0998914
-0.109243
-0.118236
-0.126832
-0.135106
-0.142953
-0.150313
-0.157005
-0.163212
-0.168904
-0.174041
-0.17861
-0.182544
-0.185981
-0.18892
-0.191363
-0.193325
-0.194815
-0.195909
-0.196624
-0.196975
-0.19718
0.0378874
0.0327636
0.027651
0.0222309
0.0165563
0.0105787
0.00416491
-0.00245508
-0.00957279
-0.0170045
-0.0247173
-0.0328319
-0.0412585
-0.0498034
-0.0586012
-0.0676075
-0.0765578
-0.0854795
-0.0943743
-0.103143
-0.111596
-0.119695
-0.127506
-0.134929
-0.141911
-0.148279
-0.154197
-0.159633
-0.164547
-0.168926
-0.1727
-0.175998
-0.178816
-0.181154
-0.183027
-0.184441
-0.18547
-0.186132
-0.186448
-0.186655
0.0353841
0.0304812
0.0255917
0.0204157
0.015005
0.00931646
0.00323058
-0.0030419
-0.00976552
-0.0167707
-0.0240287
-0.0316483
-0.0395485
-0.0475559
-0.0557923
-0.0642189
-0.0725983
-0.0809558
-0.0892936
-0.097523
-0.105472
-0.113102
-0.120473
-0.127491
-0.134106
-0.140155
-0.145784
-0.150962
-0.155649
-0.159831
-0.163438
-0.166588
-0.169275
-0.171499
-0.173275
-0.174606
-0.175562
-0.176164
-0.176437
-0.176639
0.0331327
0.0284398
0.023763
0.0188182
0.0136561
0.00823778
0.00245603
-0.00349509
-0.00985759
-0.0164737
-0.0233178
-0.0304887
-0.0379122
-0.0454324
-0.0531605
-0.0610611
-0.0689204
-0.0767618
-0.0845871
-0.0923173
-0.0997963
-0.106987
-0.113941
-0.12057
-0.126832
-0.132569
-0.137914
-0.142836
-0.147293
-0.151275
-0.15471
-0.157706
-0.160257
-0.162361
-0.164033
-0.165274
-0.166151
-0.166688
-0.166913
-0.167099
0.0310989
0.0266066
0.0221329
0.0174081
0.0124813
0.00731735
0.00181895
-0.0038335
-0.00986239
-0.0161212
-0.0225862
-0.0293476
-0.0363372
-0.0434137
-0.0506783
-0.0580997
-0.0654835
-0.072851
-0.0802041
-0.0874721
-0.0945127
-0.10129
-0.10785
-0.11411
-0.120032
-0.125466
-0.130534
-0.135202
-0.139432
-0.143213
-0.146472
-0.149312
-0.151722
-0.153702
-0.155265
-0.156411
-0.157206
-0.157672
-0.157842
-0.158003
0.0292542
0.0249539
0.0206749
0.0161598
0.0114563
0.00653253
0.00129977
-0.00407364
-0.00979314
-0.0157216
-0.0218375
-0.0282232
-0.0348151
-0.0414849
-0.0483253
-0.0553075
-0.0622547
-0.0691858
-0.0761025
-0.0829415
-0.0895731
-0.0959622
-0.10215
-0.108059
-0.113656
-0.118799
-0.123595
-0.128016
-0.132021
-0.135601
-0.138686
-0.141366
-0.143635
-0.145487
-0.146938
-0.147987
-0.148694
-0.149085
-0.149195
-0.149322
0.0275742
0.023458
0.0193659
0.0150513
0.0105602
0.00586418
0.000881376
-0.00423026
-0.00966111
-0.0152829
-0.0210754
-0.0271141
-0.0333402
-0.0396351
-0.0460846
-0.0526628
-0.0592073
-0.0657352
-0.0722479
-0.0786881
-0.0849372
-0.0909616
-0.0967984
-0.102375
-0.107661
-0.112522
-0.117057
-0.121236
-0.12502
-0.128403
-0.131313
-0.133835
-0.13596
-0.137684
-0.13902
-0.139968
-0.140586
-0.140897
-0.14094
-0.141024
0.0260382
0.0220992
0.0181866
0.014064
0.00977563
0.0052957
0.000549152
-0.0043158
-0.00947642
-0.0148119
-0.0203034
-0.0260203
-0.0319076
-0.0378557
-0.0439436
-0.0501481
-0.0563198
-0.0624741
-0.0686114
-0.0746799
-0.0805712
-0.0862528
-0.0917581
-0.097019
-0.102009
-0.1066
-0.110882
-0.114826
-0.118395
-0.121584
-0.124321
-0.126685
-0.128667
-0.130261
-0.131481
-0.132326
-0.132852
-0.13308
-0.133052
-0.133082
0.0246284
0.02086
0.0171203
0.0131817
0.00908714
0.00481326
0.000290606
-0.0043413
-0.00924771
-0.0143149
-0.0195248
-0.0249416
-0.0305139
-0.0361401
-0.0418923
-0.0477499
-0.0535749
-0.0593812
-0.0651689
-0.0708906
-0.0764463
-0.0818053
-0.0869976
-0.0919592
-0.0966663
-0.100998
-0.105037
-0.108754
-0.112114
-0.115112
-0.117679
-0.119887
-0.121726
-0.123191
-0.124294
-0.125036
-0.125466
-0.125608
-0.125503
-0.125471
0.0233298
0.0197259
0.0161526
0.0123907
0.00848164
0.00440441
9.46518e-05
-0.00431628
-0.00898278
-0.0137974
-0.0187431
-0.0238792
-0.0291572
-0.0344828
-0.0399225
-0.045457
-0.0509582
-0.0564395
-0.0619006
-0.0672975
-0.0725384
-0.0775935
-0.0824899
-0.0871674
-0.0916055
-0.0956892
-0.0994945
-0.102992
-0.10615
-0.10896
-0.111361
-0.113414
-0.115113
-0.116448
-0.117435
-0.118071
-0.118404
-0.118457
-0.118272
-0.118169
0.0221291
0.0186839
0.0152709
0.011679
0.00794783
0.0040588
-4.82845e-05
-0.00424934
-0.00868859
-0.0132647
-0.0179617
-0.022834
-0.0278364
-0.0328802
-0.0380272
-0.0432596
-0.0484583
-0.0536353
-0.0587903
-0.0638827
-0.0688273
-0.0735956
-0.0782121
-0.0826204
-0.0868014
-0.0906483
-0.0942283
-0.0975156
-0.100475
-0.103106
-0.105341
-0.107245
-0.108802
-0.110011
-0.110881
-0.111411
-0.111646
-0.111608
-0.111338
-0.111157
0.0210152
0.0177232
0.0144646
0.0110362
0.00747608
0.00376718
-0.000146457
-0.00414758
-0.00837118
-0.0127217
-0.0171835
-0.0218073
-0.0265504
-0.0313295
-0.0362017
-0.0411505
-0.0460653
-0.050957
-0.0558244
-0.0606304
-0.0652956
-0.0697932
-0.0741446
-0.0782973
-0.0822338
-0.0858533
-0.0892175
-0.0923007
-0.0950706
-0.097524
-0.099601
-0.101355
-0.102777
-0.103858
-0.104612
-0.105036
-0.105172
-0.105041
-0.104683
-0.104417
0.0199784
0.0168344
0.0137247
0.0104538
0.00705792
0.00352171
-0.000207168
-0.0040176
-0.00803602
-0.0121724
-0.0164115
-0.0208004
-0.0252987
-0.0298283
-0.0344419
-0.0391239
-0.0437716
-0.0483947
-0.0529914
-0.0575273
-0.0619292
-0.0661703
-0.0702709
-0.0741803
-0.077884
-0.0812857
-0.0844429
-0.0873298
-0.0899158
-0.0921986
-0.0941196
-0.0957289
-0.0970155
-0.0979728
-0.0986121
-0.0989304
-0.0989664
-0.0987414
-0.0982936
-0.0979371
0.0190104
0.0160094
0.0130432
0.00992392
0.00668592
0.00331531
-0.000236625
-0.00386485
-0.00768789
-0.0116206
-0.0156482
-0.0198145
-0.0240812
-0.028375
-0.0327443
-0.0371749
-0.0415707
-0.0459403
-0.0502818
-0.0545631
-0.0587154
-0.062714
-0.0665761
-0.0702547
-0.0737359
-0.0769297
-0.0798877
-0.0825861
-0.0849947
-0.0871117
-0.0888814
-0.0903493
-0.0915045
-0.0923396
-0.0928655
-0.0930786
-0.0930153
-0.0926956
-0.0921566
-0.0917054
0.0181039
0.015241
0.0124132
0.00943999
0.00635371
0.00314213
-0.000240162
-0.00369415
-0.00733062
-0.0110693
-0.0148958
-0.0188507
-0.0228979
-0.0269681
-0.0311062
-0.0352992
-0.0394571
-0.0435875
-0.0476876
-0.0517278
-0.0556443
-0.0594124
-0.0630482
-0.066507
-0.069776
-0.0727706
-0.075538
-0.078055
-0.0802926
-0.0822494
-0.0838725
-0.0852028
-0.0862296
-0.0869453
-0.0873596
-0.0874692
-0.0873073
-0.0868933
-0.0862627
-0.085714
0.0172527
0.0145232
0.0118288
0.00899615
0.00605581
0.00299707
-0.000222541
-0.00350971
-0.00696794
-0.0105215
-0.0141564
-0.0179101
-0.0217486
-0.0256066
-0.0295257
-0.0334939
-0.0374267
-0.0413302
-0.0452022
-0.0490142
-0.0527064
-0.0562559
-0.0596764
-0.0629259
-0.0659925
-0.0687966
-0.0713811
-0.0737237
-0.0757971
-0.0775994
-0.0790801
-0.0802771
-0.0811794
-0.0817785
-0.0820839
-0.0820919
-0.0818329
-0.0813261
-0.0806044
-0.0799569
0.0164515
0.0138508
0.0112849
0.00858746
0.0057876
0.00287566
-0.000187956
-0.00331531
-0.00660301
-0.00997967
-0.0134316
-0.0169937
-0.0206336
-0.0242899
-0.0280015
-0.0317563
-0.0354754
-0.0391643
-0.0428194
-0.0464148
-0.0498946
-0.053236
-0.0564518
-0.0595018
-0.0623753
-0.0649972
-0.0674064
-0.0695822
-0.0714972
-0.0731503
-0.0744943
-0.0755623
-0.0763432
-0.0768298
-0.0770293
-0.0769382
-0.0765848
-0.075987
-0.0751761
-0.0744299
0.0156956
0.0132192
0.0107769
0.00820973
0.00554493
0.00277399
-0.000139859
-0.00311399
-0.00623839
-0.00944581
-0.0127232
-0.0161024
-0.019553
-0.0230178
-0.0265319
-0.0300843
-0.0336005
-0.0370851
-0.0405347
-0.0439245
-0.047202
-0.0503457
-0.0533665
-0.0562266
-0.0589157
-0.0613633
-0.0636051
-0.0656201
-0.0673838
-0.068894
-0.0701054
-0.0710487
-0.0717138
-0.0720909
-0.0721883
-0.0720016
-0.0715566
-0.0708709
-0.0699735
-0.0691303
0.0149809
0.0126246
0.0103012
0.00785924
0.00532425
0.00268881
-8.12556e-05
-0.00290839
-0.00587629
-0.00892187
-0.0120323
-0.015237
-0.0185075
-0.0217897
-0.0251162
-0.0284759
-0.0317992
-0.0350898
-0.0383439
-0.0415381
-0.0446234
-0.0475788
-0.0504139
-0.0530929
-0.0556061
-0.0578873
-0.0599685
-0.0618307
-0.0634486
-0.0648212
-0.0659061
-0.0667302
-0.0672824
-0.0675557
-0.0675547
-0.067276
-0.0667437
-0.0659735
-0.0649938
-0.0640564
0.0143042
0.0120636
0.00985457
0.00753289
0.0051226
0.00261729
-1.47113e-05
-0.00270082
-0.00551882
-0.00840953
-0.0113604
-0.0143986
-0.0174974
-0.0206057
-0.0237533
-0.0269296
-0.0300693
-0.0331752
-0.0362434
-0.0392516
-0.0421539
-0.04493
-0.0475882
-0.0500946
-0.05244
-0.0545623
-0.0564906
-0.0582056
-0.0596851
-0.0609265
-0.0618895
-0.0625988
-0.063045
-0.0632176
-0.0631232
-0.0627576
-0.0621418
-0.0612923
-0.0602345
-0.0592075
0.0136622
0.0115332
0.00943411
0.00722801
0.00493744
0.00255699
5.74547e-05
-0.0024935
-0.00516783
-0.00791026
-0.0107088
-0.0135881
-0.0165229
-0.0194654
-0.0224424
-0.0254441
-0.0284089
-0.031339
-0.0342303
-0.0370614
-0.0397892
-0.0423946
-0.0448842
-0.0472262
-0.0494118
-0.0513826
-0.0531644
-0.0547403
-0.0560868
-0.0572026
-0.0580501
-0.0586508
-0.0589939
-0.0590727
-0.0588896
-0.0584418
-0.0577482
-0.0568248
-0.0556947
-0.0545838
0.0130525
0.0110308
0.00903733
0.00694223
0.00476656
0.00250585
0.000133236
-0.00228824
-0.00482499
-0.00742561
-0.0100784
-0.0128059
-0.0155843
-0.0183684
-0.0211829
-0.024018
-0.0268162
-0.0295789
-0.0323015
-0.0349641
-0.0375259
-0.0399684
-0.0422975
-0.0444831
-0.0465164
-0.0483428
-0.0499858
-0.0514278
-0.0526486
-0.0536455
-0.0543825
-0.0548794
-0.0551273
-0.0551156
-0.0548502
-0.0543258
-0.0535607
-0.0525689
-0.0513736
-0.0501852
0.0124726
0.0105543
0.00866204
0.00667344
0.00460799
0.00246204
0.000211017
-0.00208653
-0.00449175
-0.00695658
-0.00947015
-0.0120526
-0.0146814
-0.0173145
-0.0199739
-0.0226502
-0.0252896
-0.0278926
-0.0304548
-0.0329568
-0.0353603
-0.0376479
-0.0398243
-0.0418609
-0.0437494
-0.0454384
-0.0469488
-0.048265
-0.0493656
-0.0502491
-0.0508825
-0.0512823
-0.0514383
-0.0513442
-0.0510016
-0.0504069
-0.0495765
-0.0485236
-0.0472702
-0.0460124
0.0119206
0.0101015
0.00830636
0.00641985
0.00446001
0.00242399
0.000289381
-0.00188971
-0.00416892
-0.00650407
-0.00888439
-0.0113282
-0.0138143
-0.0163031
-0.0188147
-0.0213395
-0.0238274
-0.0262784
-0.0286875
-0.0310366
-0.0332899
-0.0354299
-0.037461
-0.039356
-0.0411067
-0.0426652
-0.0440504
-0.0452458
-0.0462337
-0.0470108
-0.0475455
-0.0478535
-0.0479263
-0.0477539
-0.0473408
-0.0466827
-0.0457936
-0.0446873
-0.0433833
-0.0420648
0.0113946
0.00967082
0.00796866
0.0061799
0.00432122
0.00239043
0.000367097
-0.00169846
-0.00385742
-0.00606841
-0.00832147
-0.0106329
-0.0129827
-0.0153339
-0.0177042
-0.0200847
-0.0224283
-0.0247343
-0.0269979
-0.0292016
-0.0313114
-0.0333114
-0.0352043
-0.0369648
-0.0385848
-0.0400195
-0.0412853
-0.0423682
-0.0432487
-0.0439251
-0.0443684
-0.0445915
-0.0445849
-0.0443426
-0.0438653
-0.0431503
-0.0422101
-0.041058
-0.039712
-0.0383424
0.0108933
0.00926078
0.00764756
0.00595234
0.00419043
0.00236023
0.000443534
-0.0015137
-0.00355752
-0.00565
-0.00778151
-0.00996657
-0.0121862
-0.014406
-0.0166419
-0.0188847
-0.0210906
-0.0232589
-0.0253837
-0.0274489
-0.0294229
-0.0312895
-0.0330512
-0.0346841
-0.0361801
-0.0374975
-0.0386513
-0.0396264
-0.0404072
-0.0409897
-0.0413469
-0.0414909
-0.0414137
-0.0411062
-0.040572
-0.0398071
-0.0388236
-0.0376336
-0.0362549
-0.0348436
0.0104151
0.00887009
0.00734187
0.00573607
0.00406668
0.00233276
0.000517793
-0.00133572
-0.00326967
-0.00524898
-0.00726446
-0.00932888
-0.0114244
-0.013519
-0.0156264
-0.0177381
-0.0198132
-0.0218499
-0.0238433
-0.0257769
-0.0276211
-0.0293614
-0.0309988
-0.0325108
-0.0338895
-0.0350963
-0.0361436
-0.0370191
-0.0377053
-0.0381999
-0.0384782
-0.03855
-0.0384067
-0.0380425
-0.0374579
-0.0366507
-0.0356315
-0.0344121
-0.0330095
-0.0315675
0.00995904
0.00849763
0.00705059
0.0055302
0.00394925
0.00230719
0.000589563
-0.00116501
-0.00299407
-0.00486538
-0.00677014
-0.00871952
-0.0106967
-0.0126717
-0.0146571
-0.0166439
-0.0185943
-0.0205064
-0.0223741
-0.0241827
-0.0259045
-0.0275246
-0.0290443
-0.0304419
-0.0317099
-0.0328122
-0.0337604
-0.034541
-0.03514
-0.0355536
-0.0357584
-0.0357638
-0.0355629
-0.0351473
-0.0345199
-0.0336777
-0.0326306
-0.0313905
-0.029973
-0.0285106
0.00952392
0.00814243
0.00677285
0.00533399
0.00383738
0.00228321
0.000658342
-0.00100174
-0.00273076
-0.00449906
-0.00629826
-0.00813796
-0.0100023
-0.0118638
-0.0137326
-0.0156007
-0.0174326
-0.0192258
-0.0209749
-0.022665
-0.02427
-0.0257767
-0.0271849
-0.0284747
-0.0296383
-0.0306425
-0.0314969
-0.0321904
-0.0327075
-0.0330459
-0.0331844
-0.0331304
-0.0328766
-0.0324178
-0.0317543
-0.0308845
-0.0298177
-0.0285649
-0.0271418
-0.0256697
0.00910883
0.00780362
0.00650791
0.00514674
0.00373076
0.00226027
0.000724008
-0.000845982
-0.00247964
-0.00414977
-0.00584838
-0.00758363
-0.00934063
-0.0110937
-0.0128521
-0.0146072
-0.0163264
-0.0180071
-0.0196431
-0.0212208
-0.0227159
-0.024115
-0.025418
-0.026606
-0.0276715
-0.0285837
-0.0293512
-0.0299624
-0.0304048
-0.0306746
-0.0307521
-0.0306446
-0.030346
-0.0298494
-0.0291572
-0.0282673
-0.0271881
-0.0259313
-0.0245113
-0.0230397
0.00871293
0.00748045
0.00625511
0.00496807
0.00362884
0.00223828
0.00078639
-0.000697733
-0.00224055
-0.00381718
-0.00542
-0.00705585
-0.00871068
-0.010361
-0.012014
-0.0136619
-0.0152743
-0.016848
-0.0183773
-0.0198486
-0.0212392
-0.022537
-0.0237409
-0.0248332
-0.0258066
-0.0266329
-0.0273189
-0.0278551
-0.0282278
-0.0284348
-0.0284582
-0.0283037
-0.0279653
-0.0274387
-0.0267243
-0.0258212
-0.0247377
-0.0234844
-0.0220765
-0.0206154
0.00833544
0.00717224
0.00601394
0.00479744
0.00353144
0.00221697
0.000845428
-0.000556884
-0.00201322
-0.00350087
-0.00501254
-0.00655388
-0.00811163
-0.00966395
-0.0112174
-0.0127634
-0.0142744
-0.0157471
-0.0171749
-0.0185455
-0.019838
-0.0210402
-0.0221508
-0.0231533
-0.0240406
-0.0247866
-0.0253977
-0.0258635
-0.0261733
-0.0263237
-0.0262982
-0.0261025
-0.0257317
-0.0251804
-0.0244507
-0.0235415
-0.0224605
-0.0212189
-0.0198309
-0.0183899
0.00797564
0.00687838
0.00578386
0.00463455
0.00343823
0.00219623
0.00090116
-0.000423259
-0.00179733
-0.00320034
-0.00462536
-0.00607686
-0.00754237
-0.00900201
-0.0104604
-0.0119102
-0.0133253
-0.0147018
-0.0160342
-0.01731
-0.0185095
-0.0196219
-0.020645
-0.0215634
-0.0223704
-0.0230419
-0.0235831
-0.0239855
-0.0242373
-0.0243365
-0.0242684
-0.0240376
-0.0236393
-0.0230702
-0.0223313
-0.0214224
-0.0203511
-0.0191278
-0.0177676
-0.0163556
0.00763286
0.00659828
0.00556443
0.00447904
0.00334906
0.00217603
0.000953674
-0.000296627
-0.00159249
-0.00291506
-0.00425774
-0.00562395
-0.00700202
-0.00837342
-0.0097423
-0.0111006
-0.0124248
-0.0137111
-0.0149528
-0.0161391
-0.0172516
-0.0182794
-0.0192205
-0.0200605
-0.0207927
-0.0213952
-0.0218726
-0.0222159
-0.022416
-0.0224698
-0.0223641
-0.0221035
-0.0216843
-0.0211025
-0.0203604
-0.0194579
-0.0184023
-0.0172044
-0.0158785
-0.0145034
0.00730647
0.0063314
0.0053553
0.00433067
0.00326378
0.00215635
0.00100311
-0.000176717
-0.00139829
-0.00264446
-0.00390894
-0.00519424
-0.00648936
-0.00777742
-0.00906112
-0.0103332
-0.0115716
-0.0127721
-0.013929
-0.0150311
-0.0160614
-0.0170102
-0.0178747
-0.0186415
-0.0193043
-0.0198432
-0.0202615
-0.0205521
-0.0207051
-0.0207186
-0.0205811
-0.0202962
-0.0198606
-0.019272
-0.018532
-0.0176414
-0.0166075
-0.0154406
-0.0141555
-0.0128242
0.00699585
0.00607729
0.00515604
0.00418917
0.00318231
0.00213721
0.00104961
-6.32302e-05
-0.00121429
-0.00238794
-0.0035782
-0.00478682
-0.00600341
-0.00721233
-0.00841584
-0.00960623
-0.0107636
-0.0118837
-0.0129602
-0.0139831
-0.0149368
-0.0158114
-0.0166045
-0.0173034
-0.017902
-0.0183823
-0.0187472
-0.0189891
-0.0191006
-0.0190791
-0.0189143
-0.0186099
-0.0181635
-0.0175726
-0.0168398
-0.0159662
-0.0149589
-0.0138283
-0.012589
-0.0113075
0.00670041
0.00583543
0.00496633
0.00405435
0.00310445
0.00211861
0.00109335
4.41347e-05
-0.00104002
-0.00214489
-0.0032648
-0.00440077
-0.005543
-0.00667732
-0.00780468
-0.0089182
-0.00999919
-0.0110432
-0.0120446
-0.0129934
-0.0138749
-0.0146805
-0.015407
-0.0160429
-0.0165824
-0.0170089
-0.0173248
-0.0175239
-0.0175981
-0.0175462
-0.0173591
-0.01704
-0.0165868
-0.0159984
-0.0152771
-0.0144249
-0.0134487
-0.0123588
-0.0111696
-0.00994274
0.00641956
0.00560537
0.00478579
0.00392587
0.00303015
0.00210058
0.00113446
0.00014566
-0.000875057
-0.00191475
-0.002968
-0.00403521
-0.00510719
-0.00617073
-0.00722657
-0.00826741
-0.00927641
-0.0102492
-0.0111798
-0.012059
-0.0128735
-0.0136145
-0.0142793
-0.0148569
-0.0153419
-0.0157194
-0.0159913
-0.0161514
-0.0161934
-0.0161157
-0.0159103
-0.0155806
-0.0151251
-0.014543
-0.0138372
-0.0130102
-0.0120687
-0.0110228
-0.00988735
-0.00871867
0.00615275
0.00538662
0.00461405
0.00380359
0.00295924
0.0020831
0.00117308
0.000241618
-0.000718981
-0.00169693
-0.00268707
-0.00368925
-0.0046948
-0.00569172
-0.00667979
-0.00765232
-0.00859367
-0.00949929
-0.0103638
-0.0111781
-0.0119297
-0.0126109
-0.0132183
-0.0137423
-0.0141774
-0.0145102
-0.0147422
-0.0148681
-0.0148818
-0.0147823
-0.0145628
-0.0142264
-0.0137722
-0.0132
-0.0125132
-0.0117143
-0.0108104
-0.00981158
-0.00873184
-0.00762413
0.00589939
0.00517878
0.0044508
0.0036872
0.00289165
0.00206619
0.00120935
0.000332267
-0.000571393
-0.00149089
-0.00242131
-0.00336204
-0.00430491
-0.00523878
-0.00616321
-0.00707135
-0.0079491
-0.00879199
-0.00959431
-0.0103479
-0.0110412
-0.0116667
-0.0122212
-0.0126958
-0.0130852
-0.0133776
-0.013574
-0.0136694
-0.013659
-0.0135416
-0.0133115
-0.0129718
-0.0125221
-0.011963
-0.0112977
-0.0105296
-0.00966562
-0.00871536
-0.00769339
-0.00664781
0.00565893
0.00498135
0.00429568
0.00357655
0.00282722
0.00204985
0.00124338
0.000417845
-0.000431917
-0.00129612
-0.00217006
-0.00305273
-0.00393643
-0.00481102
-0.00567528
-0.00652305
-0.00734113
-0.00812502
-0.00886951
-0.00956654
-0.0102054
-0.0107793
-0.0112851
-0.0117142
-0.0120621
-0.0123179
-0.0124824
-0.0125514
-0.0125202
-0.0123884
-0.0121511
-0.0118112
-0.011369
-0.0108253
-0.0101839
-0.00944845
-0.00862571
-0.00772565
-0.00676138
-0.00577875
0.00543082
0.00479392
0.00414836
0.00347132
0.00276584
0.00203403
0.00127526
0.000498568
-0.000300202
-0.0011121
-0.00193266
-0.00276054
-0.00358849
-0.00440706
-0.00521496
-0.00600592
-0.00676803
-0.0074969
-0.00818714
-0.00883143
-0.00941999
-0.00994617
-0.0104069
-0.0107946
-0.0111046
-0.0113275
-0.0114638
-0.0115096
-0.0114612
-0.011318
-0.0110763
-0.010739
-0.0103065
-0.00978053
-0.00916471
-0.00846318
-0.00768279
-0.00683266
-0.00592672
-0.00500613
0.00521449
0.00461603
0.00400845
0.00337131
0.00270735
0.0020187
0.00130509
0.00057463
-0.000175926
-0.000938406
-0.00170854
-0.00248471
-0.00326011
-0.00402607
-0.00478083
-0.00551859
-0.00622829
-0.00690553
-0.00754537
-0.00814066
-0.00868237
-0.00916454
-0.00958396
-0.00993369
-0.0102095
-0.0104028
-0.0105141
-0.01054
-0.0104773
-0.0103257
-0.0100822
-0.00974958
-0.00932909
-0.00882217
-0.00823327
-0.00756641
-0.00682837
-0.00602866
-0.00517923
-0.00431992
0.00500942
0.00444723
0.00387561
0.00327623
0.0026516
0.00200382
0.00133291
0.000646209
-5.87884e-05
-0.00077459
-0.00149711
-0.00222455
-0.00295047
-0.00366685
-0.00437185
-0.00505966
-0.00572028
-0.00634944
-0.00694215
-0.00749188
-0.0079904
-0.0084319
-0.00881342
-0.00912856
-0.00937339
-0.00954034
-0.00962968
-0.00963859
-0.00956428
-0.00940673
-0.00916362
-0.00883781
-0.00843053
-0.00794425
-0.00738283
-0.00675095
-0.00605529
-0.00530429
-0.00451091
-0.00371039
0.00481501
0.00428707
0.0037495
0.00318584
0.00259843
0.00198931
0.00135878
0.000713466
5.14982e-05
-0.000620245
-0.00129785
-0.00197936
-0.00265872
-0.00332858
-0.00398674
-0.00462783
-0.00524256
-0.00582672
-0.00637571
-0.00688322
-0.00734164
-0.00774577
-0.00809257
-0.00837625
-0.00859316
-0.00873662
-0.00880682
-0.0088013
-0.00871783
-0.00855656
-0.00831567
-0.00799812
-0.00760573
-0.00714047
-0.0066071
-0.00600998
-0.00535561
-0.00465291
-0.00391243
-0.00316879
0.00463079
0.00413514
0.00362976
0.00309989
0.00254767
0.00197513
0.00138276
0.00077655
0.000155201
-0.000474977
-0.00111024
-0.00174852
-0.00238412
-0.00301019
-0.00362452
-0.00422182
-0.00479365
-0.00533595
-0.00584417
-0.00631253
-0.00673404
-0.00710374
-0.00741879
-0.00767391
-0.00786571
-0.00798834
-0.00804188
-0.00802437
-0.0079338
-0.00777061
-0.0075337
-0.0072258
-0.00684869
-0.00640541
-0.00589986
-0.00533698
-0.00472315
-0.004066
-0.00337719
-0.00268699
0.0044562
0.00399102
0.00351607
0.00301812
0.00249918
0.0019612
0.00140486
0.000835599
0.000252569
-0.000338421
-0.000933796
-0.00153139
-0.00212585
-0.00271087
-0.00328404
-0.00384043
-0.00437221
-0.00487544
-0.00534587
-0.005778
-0.00616537
-0.00650349
-0.00678956
-0.00701878
-0.00718808
-0.00729228
-0.0073315
-0.00730392
-0.00720824
-0.00704487
-0.00681303
-0.00651562
-0.00615495
-0.00573325
-0.00525545
-0.00472592
-0.00415078
-0.0035382
-0.00289713
-0.00225782
0.00429078
0.00385429
0.00340809
0.00294031
0.00245278
0.00194747
0.00142513
0.000890743
0.000343841
-0.000210223
-0.000768037
-0.00132738
-0.00188322
-0.00242968
-0.00296436
-0.00348248
-0.00397688
-0.0044438
-0.00487909
-0.00527768
-0.00563365
-0.00594277
-0.0062024
-0.00640822
-0.00655737
-0.00664536
-0.0066722
-0.00663663
-0.00653728
-0.00637498
-0.00614947
-0.00586341
-0.00551888
-0.00511927
-0.00466836
-0.0041711
-0.00363341
-0.00306204
-0.0024671
-0.00187481