/*--------------------------------*- C++ -*----------------------------------*\
| =========                 |                                                 |
| \\      /  F ield         | OpenFOAM: The Open Source CFD Toolbox           |
|  \\    /   O peration     | Version:  3.0.1                                 |
|   \\  /    A nd           | Web:      www.OpenFOAM.org                      |
|    \\/     M anipulation  |                                                 |
\*---------------------------------------------------------------------------*/
FoamFile
{
    version     2.0;
    format      ascii;
    class       surfaceScalarField;
    location    "100";
    object      phi;
}
// * * * * * * * * * * * * * * * * * * * * * * * * * * * * * * * * * * * * * //

dimensions      [0 3 -1 0 0 0 0];

internalField   nonuniform List<scalar> 
115520
(
0.00946455
-0.00228503
-0.00717909
0.0110267
-0.001562
0.0117378
-0.000710852
0.0119414
-0.000203497
0.0118619
7.97104e-05
0.0116283
0.0002337
0.0113819
0.000246586
0.0111381
0.000243801
0.0109609
0.000177337
0.0108641
9.69436e-05
0.0108209
4.33331e-05
0.0108329
-1.19476e-05
0.0109073
-7.42776e-05
0.0110114
-0.000104126
0.0111336
-0.000122044
0.0112779
-0.000144304
0.0114403
-0.000162287
0.0116072
-0.000166905
0.011773
-0.000165684
0.0119396
-0.000166646
0.0121114
-0.000171736
0.0122795
-0.000168015
0.0124404
-0.000160867
0.0125915
-0.000151115
0.0127413
-0.000149659
0.012885
-0.00014369
0.0130203
-0.000135232
0.0131456
-0.000125289
0.0132596
-0.000114003
0.0133685
-0.00010886
0.0134688
-0.000100211
0.0135594
-9.0614e-05
0.0136404
-8.08887e-05
0.0137117
-7.13672e-05
0.0137637
-5.19388e-05
0.0137692
-5.43279e-06
0.0137513
1.78876e-05
0.0137353
1.60625e-05
0.013749
-1.36388e-05
-6.8278e-05
0.0138172
0.00564196
-0.00353569
-0.00439122
0.00679018
-0.00271015
0.00783953
-0.00176007
0.00871586
-0.00107975
0.00943407
-0.000638378
0.00999436
-0.00032653
0.0104188
-0.000177719
0.0107167
-5.41286e-05
0.0109378
-4.36148e-05
0.0111099
-7.52065e-05
0.0112377
-8.43268e-05
0.0113571
-0.000131328
0.0114958
-0.000212936
0.0116329
-0.000241104
0.0117714
-0.000260556
0.0119312
-0.000304079
0.0121025
-0.000333476
0.0122749
-0.000339273
0.0124468
-0.000337509
0.0126255
-0.000345396
0.0128096
-0.000355756
0.012989
-0.000347386
0.0131624
-0.000334239
0.0133281
-0.000316755
0.0134969
-0.000318454
0.0136579
-0.000304704
0.0138099
-0.000287138
0.0139518
-0.000267153
0.0140827
-0.000244873
0.0142107
-0.00023687
0.0143281
-0.000217532
0.0144341
-0.000196567
0.0145277
-0.000174533
0.0146078
-0.000151457
0.0146764
-0.000120505
0.0147314
-6.03328e-05
0.0147771
-2.78424e-05
0.0148197
-2.64712e-05
0.0148645
-5.84458e-05
-0.000125742
0.014922
0.0049922
-0.00455577
-0.00397207
0.0059815
-0.00369941
0.00695062
-0.00272912
0.00782524
-0.00195432
0.00860805
-0.00142112
0.00929106
-0.0010095
0.00985219
-0.000738788
0.010335
-0.00053693
0.0107263
-0.000434823
0.0110494
-0.000398286
0.011321
-0.000355953
0.0115538
-0.000364089
0.0117662
-0.000425258
0.0119623
-0.000437158
0.0121483
-0.000446572
0.0123372
-0.000492887
0.0125267
-0.000523019
0.0127136
-0.000526144
0.0128983
-0.00052212
0.0130851
-0.000532167
0.0132725
-0.000543104
0.0134549
-0.000529777
0.0136318
-0.000511175
0.0138024
-0.00048734
0.0139718
-0.000487799
0.0141331
-0.000465987
0.0142857
-0.000439652
0.014429
-0.000410507
0.0145627
-0.000378483
0.0146901
-0.000364313
0.0148067
-0.000334073
0.014912
-0.000301887
0.0150058
-0.000268256
0.0150874
-0.000233016
0.015158
-0.000191128
0.0152162
-0.000118539
0.0152626
-7.41989e-05
0.0153005
-6.43616e-05
0.0153306
-8.85014e-05
-0.000147109
0.015352
0.00454553
-0.00541489
-0.00368642
0.00539985
-0.0045537
0.00625945
-0.00358869
0.00708077
-0.00277561
0.00786055
-0.00220085
0.00858363
-0.00173257
0.00921966
-0.00137478
0.00979977
-0.00111702
0.0103012
-0.000936267
0.0107381
-0.000835171
0.0111236
-0.000741335
0.0114609
-0.000701396
0.0117619
-0.000726251
0.0120348
-0.000709993
0.0122849
-0.000696718
0.0125236
-0.000731573
0.0127531
-0.000752509
0.0129728
-0.000745789
0.0131842
-0.000733443
0.0133924
-0.000740428
0.0135976
-0.00074826
0.0137953
-0.000727444
0.0139853
-0.000701136
0.0141671
-0.000669159
0.0143464
-0.000667072
0.0145167
-0.00063624
0.0146772
-0.00060014
0.0148276
-0.000560865
0.0149674
-0.00051831
0.0151008
-0.000497714
0.0152229
-0.000456108
0.0153332
-0.000412191
0.0154315
-0.000366526
0.0155174
-0.000318962
0.0155931
-0.000266763
0.0156574
-0.000182852
0.0157099
-0.000126649
0.0157517
-0.00010613
0.0157831
-0.000119911
-0.000166642
0.0158026
0.0043377
-0.00619795
-0.00355465
0.00511946
-0.00533546
0.00591054
-0.00437975
0.00668382
-0.00354887
0.00743984
-0.00295686
0.00816643
-0.00245914
0.00883135
-0.00203968
0.00946057
-0.00174623
0.0100247
-0.0015004
0.0105317
-0.00134212
0.0109933
-0.00120293
0.0114061
-0.00111415
0.0117754
-0.00109554
0.0121127
-0.00104728
0.0124217
-0.00100572
0.0127089
-0.00101875
0.0129792
-0.00102276
0.0132343
-0.00100092
0.0134763
-0.000975456
0.0137096
-0.000973705
0.0139352
-0.000973851
0.0141508
-0.000943006
0.0143565
-0.00090687
0.0145524
-0.000865048
0.0147429
-0.000857555
0.0149232
-0.00081651
0.0150928
-0.000769657
0.0152513
-0.000719402
0.0153986
-0.000665616
0.015538
-0.000637081
0.0156655
-0.000583539
0.0157807
-0.000527412
0.0158836
-0.000469379
0.0159739
-0.000409325
0.0160535
-0.000346349
0.0161216
-0.000250864
0.0161772
-0.0001823
0.0162208
-0.000149697
0.0162522
-0.000151233
-0.00018489
0.0162704
0.00422967
-0.00693839
-0.00348928
0.00496952
-0.00607532
0.00571759
-0.00512783
0.00645611
-0.00428738
0.00718795
-0.00368869
0.00790513
-0.00317632
0.00857953
-0.00271407
0.00923255
-0.00239924
0.00983456
-0.00210241
0.010389
-0.00189653
0.0109053
-0.00171928
0.0113761
-0.00158492
0.011802
-0.00152139
0.012195
-0.00144026
0.0125572
-0.00136788
0.0128911
-0.00135272
0.0132028
-0.00133441
0.0134952
-0.00129327
0.0137703
-0.00125054
0.0140316
-0.00123507
0.0142812
-0.00122336
0.014518
-0.00117981
0.0147426
-0.00113145
0.0149552
-0.00107768
0.0151597
-0.00106206
0.0153526
-0.00100936
0.0155335
-0.000950511
0.0157022
-0.000888149
0.0158587
-0.000822112
0.0160059
-0.000784279
0.0161405
-0.000718062
0.0162621
-0.000649064
0.0163708
-0.000578079
0.0164666
-0.000505029
0.0165509
-0.000430644
0.016623
-0.00032303
0.0166823
-0.000241495
0.0167285
-0.000195934
0.0167616
-0.000184328
-0.000204369
0.0167811
0.00418984
-0.00765808
-0.00347018
0.00490805
-0.00679354
0.00563185
-0.00585164
0.00634891
-0.00500445
0.00706319
-0.00440297
0.00776999
-0.00388312
0.00844634
-0.00339042
0.00911046
-0.00306336
0.00973531
-0.00272726
0.0103217
-0.00248293
0.0108773
-0.00227486
0.0113924
-0.00210005
0.0118643
-0.00199325
0.0123044
-0.00188037
0.0127134
-0.00177686
0.0130907
-0.00172994
0.0134421
-0.00168585
0.0137714
-0.0016225
0.0140802
-0.00155936
0.0143711
-0.00152602
0.0146465
-0.0014987
0.0149066
-0.0014399
0.0151521
-0.00137696
0.0153835
-0.0013091
0.0156041
-0.00128257
0.0158113
-0.00121663
0.0160052
-0.0011444
0.0161858
-0.00106866
0.0163529
-0.000989231
0.0165092
-0.00094059
0.016652
-0.000860822
0.0167811
-0.00077816
0.0168965
-0.000693493
0.0169983
-0.00060677
0.0170878
-0.000520133
0.0171644
-0.000399637
0.0172273
-0.000304427
0.0172765
-0.000245132
0.0173119
-0.00021963
-0.000225508
0.017333
0.00419512
-0.00837039
-0.00348285
0.0049049
-0.00750334
0.00561769
-0.00656444
0.0063244
-0.00571117
0.00702921
-0.00510779
0.00772947
-0.00458338
0.00840689
-0.00406784
0.00907719
-0.00373367
0.00971701
-0.00336708
0.0103259
-0.00309184
0.0109102
-0.00285912
0.0114594
-0.00264931
0.0119687
-0.00250252
0.0124484
-0.00236004
0.012898
-0.00222644
0.0133144
-0.00214636
0.0137032
-0.0020746
0.0140679
-0.00198724
0.01441
-0.00190146
0.014731
-0.00184699
0.0150332
-0.00180094
0.015318
-0.00172462
0.0155859
-0.00164491
0.0158377
-0.00156089
0.0160759
-0.00152074
0.0162992
-0.00143992
0.0165076
-0.00135283
0.0167013
-0.00126236
0.0168804
-0.00116827
0.0170471
-0.00110725
0.0171992
-0.00101293
0.0173367
-0.000915685
0.0174597
-0.000816468
0.0175682
-0.000715251
0.0176635
-0.000615399
0.017745
-0.000481157
0.0178121
-0.000371497
0.0178646
-0.000297689
0.0179026
-0.000257562
-0.000248667
0.0179257
0.00423277
-0.00908441
-0.00351878
0.00494329
-0.00821387
0.00565463
-0.0072758
0.00635972
-0.00641627
0.00706252
-0.0058106
0.00776155
-0.00528242
0.00844223
-0.00474853
0.00911821
-0.00440966
0.00976981
-0.00401868
0.0103962
-0.00371821
0.0110025
-0.00346548
0.0115788
-0.0032256
0.012119
-0.00304264
0.012632
-0.00287307
0.0131167
-0.00271112
0.0135682
-0.00259791
0.0139914
-0.00249777
0.0143896
-0.00238547
0.0147638
-0.00227564
0.0151145
-0.00219768
0.015444
-0.0021304
0.015754
-0.00203461
0.0160453
-0.00193618
0.0163185
-0.0018341
0.0165756
-0.00177781
0.0168161
-0.00168047
0.0170403
-0.00157703
0.0172484
-0.0014704
0.0174405
-0.00136035
0.0176185
-0.00128531
0.0177809
-0.00117535
0.0179278
-0.00106249
0.018059
-0.000947747
0.0181749
-0.0008311
0.0182765
-0.000716979
0.0183634
-0.000568043
0.018435
-0.000443083
0.0184912
-0.000353934
0.0185321
-0.000298405
-0.000274044
0.0185575
0.00429471
-0.00980661
-0.00357253
0.0050126
-0.00893178
0.00572952
-0.00799274
0.00643976
-0.00712652
0.00714684
-0.00651769
0.00784991
-0.0059855
0.00853722
-0.00543586
0.00922061
-0.00509305
0.00988363
-0.0046817
0.0105254
-0.00435996
0.0111504
-0.00409048
0.0117493
-0.00382454
0.0123157
-0.00360903
0.0128574
-0.00341478
0.0133727
-0.00322642
0.0138558
-0.00308097
0.0143106
-0.00295253
0.0147401
-0.00281499
0.0151448
-0.00268033
0.0155243
-0.00257726
0.0158808
-0.00248685
0.0162162
-0.00237001
0.0165312
-0.0022512
0.0168265
-0.00212936
0.0171034
-0.00205466
0.0173621
-0.00193921
0.017603
-0.00181793
0.0178264
-0.00169374
0.0180324
-0.00156635
0.0182227
-0.00147565
0.0183962
-0.00134889
0.0185531
-0.0012193
0.0186933
-0.00108797
0.0188171
-0.000954871
0.0189254
-0.000825349
0.0190181
-0.0006607
0.0190946
-0.000519523
0.0191548
-0.000414147
0.0191988
-0.000342381
-0.00030178
0.0192265
0.00437569
-0.0105419
-0.00364047
0.00510595
-0.00966204
0.00583381
-0.00872062
0.00655447
-0.00784718
0.00727097
-0.00723421
0.0079828
-0.00669734
0.00868032
-0.00613338
0.00937375
-0.00578649
0.0100494
-0.00535731
0.0107063
-0.00501692
0.0113486
-0.00473277
0.0119678
-0.0044438
0.0125577
-0.00419886
0.0131249
-0.00398198
0.0136675
-0.00376902
0.0141791
-0.00359261
0.014663
-0.00343639
0.0151217
-0.00327368
0.0155552
-0.00311389
0.0159626
-0.00298467
0.0163455
-0.00286977
0.0167062
-0.00273061
0.017045
-0.00259002
0.0173626
-0.00244696
0.0176598
-0.00235182
0.0179373
-0.00221677
0.0181956
-0.00207623
0.0184349
-0.00193306
0.0186556
-0.00178698
0.0188589
-0.00167898
0.0190443
-0.0015342
0.0192117
-0.00138673
0.0193614
-0.00123768
0.0194936
-0.00108703
0.0196091
-0.000940915
0.0197079
-0.000759474
0.0197895
-0.000601101
0.0198539
-0.000478557
0.0199012
-0.000389663
-0.000332001
0.0199314
0.00447214
-0.011294
-0.00372003
0.0052187
-0.0104086
0.00596172
-0.00946365
0.00669701
-0.00858248
0.00742716
-0.00796437
0.00815181
-0.00742199
0.0088629
-0.00684449
0.00956928
-0.00649288
0.0102593
-0.00604737
0.0109324
-0.00569
0.011592
-0.00539235
0.0122307
-0.0050825
0.0128425
-0.00481065
0.0134332
-0.0045727
0.0140008
-0.00433666
0.0145389
-0.00413068
0.0150499
-0.00394736
0.015536
-0.00375977
0.0159969
-0.00357478
0.016431
-0.00341883
0.0168397
-0.00327846
0.0172251
-0.003116
0.0175876
-0.00295248
0.0179275
-0.00278693
0.0182453
-0.00266959
0.0185421
-0.00251356
0.0188183
-0.00235238
0.0190741
-0.00218889
0.0193099
-0.00202278
0.0195268
-0.00189588
0.0197244
-0.00173183
0.019903
-0.00156525
0.0200626
-0.0013973
0.0202035
-0.00122795
0.0203266
-0.00106401
0.0204318
-0.000864648
0.0205188
-0.000688049
0.0205876
-0.000547348
0.0206383
-0.000440393
-0.000364794
0.0206711
0.00458155
-0.0120662
-0.0038094
0.00534766
-0.0111747
0.00610926
-0.0102253
0.00686264
-0.00933587
0.00760997
-0.00871171
0.00835092
-0.00816295
0.00907864
-0.00757222
0.00980079
-0.00721504
0.0105075
-0.00675405
0.0111981
-0.00638064
0.0118758
-0.00607003
0.012534
-0.00574074
0.0131672
-0.00544389
0.0137805
-0.00518599
0.0143719
-0.00492803
0.014935
-0.00469373
0.0154716
-0.00448403
0.0159837
-0.00427188
0.0164707
-0.00406178
0.0169307
-0.00387876
0.0173645
-0.00371224
0.0177741
-0.00352568
0.01816
-0.00333829
0.0185222
-0.00314917
0.0188607
-0.0030081
0.0191769
-0.00282981
0.0194713
-0.00264671
0.019744
-0.00246158
0.0199953
-0.00227413
0.0202262
-0.00212677
0.0204366
-0.00194218
0.0206266
-0.00175526
0.0207965
-0.00156719
0.0209465
-0.00137794
0.0210774
-0.0011949
0.0211892
-0.000976447
0.0212817
-0.000780548
0.021355
-0.000620658
0.0214093
-0.000494669
-0.000400235
0.0214447
0.00470212
-0.0128611
-0.00390723
0.00549053
-0.0119632
0.00627363
-0.0110084
0.00704803
-0.0101103
0.00781554
-0.00947923
0.0085758
-0.00892321
0.00932289
-0.00831932
0.0100634
-0.0079556
0.0107889
-0.00747952
0.0114988
-0.00709054
0.0121959
-0.00676708
0.0128744
-0.00641924
0.0135292
-0.00609874
0.0141648
-0.00582161
0.0147793
-0.00554254
0.0153666
-0.00528098
0.015928
-0.00504551
0.0164652
-0.00480907
0.0169774
-0.00457395
0.0174623
-0.0043637
0.0179206
-0.00417052
0.0183541
-0.00395921
0.018763
-0.00374713
0.0191473
-0.00353348
0.0195066
-0.00336736
0.0198424
-0.00316563
0.0201551
-0.00295939
0.0204448
-0.00275137
0.020712
-0.0025413
0.0209572
-0.00237196
0.0211806
-0.00216557
0.0213824
-0.00195705
0.0215628
-0.0017476
0.0217221
-0.00153722
0.021861
-0.00133378
0.0219796
-0.00109504
0.0220778
-0.000878731
0.0221557
-0.000698589
0.0222136
-0.000552562
-0.000438359
0.0222517
0.00483256
-0.0136811
-0.00401254
0.00564569
-0.0127763
0.00645282
-0.0118155
0.00725081
-0.0109083
0.0080411
-0.0102695
0.00882332
-0.00970544
0.00959226
-0.00908826
0.0103537
-0.00871701
0.0111001
-0.00822593
0.011831
-0.0078215
0.0125489
-0.00748498
0.0132487
-0.00711904
0.0139258
-0.00677582
0.014584
-0.00647982
0.0152216
-0.00618012
0.0158327
-0.00589212
0.0164185
-0.00563133
0.0169803
-0.00537079
0.017517
-0.0051107
0.0180264
-0.00487309
0.0185087
-0.00465286
0.0189658
-0.00441623
0.0193974
-0.00417873
0.0198036
-0.0039397
0.0201836
-0.00374734
0.020539
-0.00352106
0.0208701
-0.00329052
0.0211772
-0.0030584
0.0214603
-0.00282447
0.0217201
-0.0026317
0.0219567
-0.00240222
0.0221705
-0.00217083
0.0223616
-0.00193873
0.0225304
-0.00170596
0.0226774
-0.00148081
0.0228029
-0.00122055
0.0229069
-0.000982688
0.0229895
-0.000781196
0.023051
-0.000614097
-0.000479168
0.0230919
0.00497189
-0.0145285
-0.00412455
0.00581196
-0.0136164
0.0066454
-0.012649
0.00746926
-0.0117321
0.00828469
-0.011085
0.00909124
-0.010512
0.00988427
-0.00988129
0.0106688
-0.00950151
0.0114381
-0.00899531
0.012192
-0.00857533
0.0129323
-0.00822534
0.0136547
-0.00784144
0.0143549
-0.00747604
0.0150364
-0.00716125
0.0156974
-0.00684111
0.0163325
-0.00652723
0.0169425
-0.0062414
0.0175286
-0.00595682
0.0180896
-0.00567173
0.0186231
-0.00540663
0.0191292
-0.00515898
0.0196095
-0.00489648
0.0200637
-0.00463289
0.0204916
-0.00436768
0.0208923
-0.00414803
0.0212674
-0.00389614
0.0216171
-0.00364019
0.0219415
-0.0033828
0.0222408
-0.00312378
0.0225152
-0.00290615
0.0227653
-0.00265231
0.0229913
-0.00239676
0.0231933
-0.00214074
0.0233716
-0.00188429
0.0235269
-0.00163609
0.0236594
-0.00135306
0.0237692
-0.00109246
0.0238565
-0.000868493
0.0239216
-0.000679259
-0.000522615
0.0239651
0.00511939
-0.0154052
-0.00424269
0.00598846
-0.0144854
0.00685032
-0.0135108
0.00770217
-0.012584
0.00854488
-0.0119277
0.00937793
-0.0113451
0.0101971
-0.0107005
0.0110068
-0.0103112
0.0118011
-0.00978961
0.0125796
-0.00935379
0.013344
-0.00898978
0.0140904
-0.00858781
0.0148149
-0.00820051
0.0155204
-0.00786678
0.0162054
-0.00752616
0.0168649
-0.0071867
0.0174994
-0.00687593
0.0181098
-0.00656721
0.0186951
-0.00625698
0.0192527
-0.00596422
0.0197825
-0.00568879
0.0202858
-0.00539986
0.0207625
-0.00510951
0.0212121
-0.00481736
0.0216335
-0.00456943
0.0220283
-0.00429091
0.0223966
-0.00400845
0.0227384
-0.00372464
0.023054
-0.00343934
0.0233433
-0.00319546
0.0236069
-0.00291598
0.0238452
-0.00263498
0.0240581
-0.00235372
0.0242461
-0.00207228
0.0244097
-0.00179968
0.0245493
-0.00149261
0.0246649
-0.00120806
0.0247568
-0.00096045
0.0248256
-0.000747981
-0.000568599
0.0248715
0.00527452
-0.0163132
-0.0043665
0.00617454
-0.0153855
0.00706681
-0.0144031
0.00794864
-0.0134658
0.00882064
-0.0127997
0.00968223
-0.0122067
0.0105296
-0.0115479
0.0113665
-0.0111481
0.0121875
-0.0106107
0.0129924
-0.0101586
0.0137825
-0.00977993
0.0145543
-0.00935961
0.0153042
-0.00895044
0.0160349
-0.00859743
0.0167448
-0.00823608
0.0174293
-0.00787116
0.0180887
-0.00753538
0.0187238
-0.00720229
0.0193334
-0.00686665
0.0199152
-0.00654596
0.0204687
-0.00624234
0.0209953
-0.00592639
0.0214944
-0.00560861
0.0219657
-0.00528874
0.0224079
-0.00501158
0.0228224
-0.00470543
0.0232093
-0.00439539
0.0235687
-0.00408402
0.0239006
-0.00377122
0.0242049
-0.00349975
0.0244822
-0.00319333
0.0247328
-0.00288557
0.0249569
-0.00257775
0.0251546
-0.00227001
0.0253265
-0.00197163
0.0254731
-0.00163919
0.0255945
-0.00132946
0.0256911
-0.001057
0.0257632
-0.000820152
-0.000616962
0.0258116
0.00543687
-0.0172544
-0.00449563
0.00636974
-0.0163183
0.00729434
-0.0153277
0.00820805
-0.0143796
0.00911126
-0.0137029
0.0100033
-0.0130987
0.0108807
-0.0124252
0.0117466
-0.0120141
0.0125963
-0.0114604
0.0134292
-0.0109915
0.0142467
-0.0105974
0.0150454
-0.0101583
0.0158221
-0.0097271
0.016579
-0.00935434
0.0173148
-0.00897187
0.018025
-0.0085814
0.01871
-0.00822037
0.0193702
-0.00786253
0.0200047
-0.00750111
0.0206109
-0.00715214
0.0211884
-0.00681983
0.0217382
-0.00647623
0.0222599
-0.00613031
0.0227531
-0.00578191
0.0232161
-0.0054746
0.0236505
-0.00513981
0.0240562
-0.00480111
0.0244332
-0.00446102
0.0247815
-0.00411954
0.0251009
-0.00381913
0.025392
-0.00348447
0.0256551
-0.00314862
0.0258902
-0.00281289
0.0260977
-0.00247748
0.026278
-0.00215193
0.0264316
-0.00179279
0.0265587
-0.00145657
0.0266597
-0.00115802
0.0267352
-0.000895609
-0.000667489
0.0267857
0.00560612
-0.0182308
-0.00462981
0.0065737
-0.0172859
0.0075325
-0.0162865
0.00847996
-0.015327
0.00941625
-0.0146392
0.0103407
-0.0140232
0.0112499
-0.0133344
0.0121467
-0.0129109
0.0130268
-0.0123404
0.0138894
-0.0118542
0.0147359
-0.0114439
0.015563
-0.0109854
0.0163678
-0.0105319
0.0171521
-0.0101387
0.0179149
-0.0097346
0.0186518
-0.00931833
0.0193631
-0.00893168
0.0200492
-0.0085486
0.020709
-0.00816088
0.02134
-0.00778318
0.0219418
-0.00742163
0.0225152
-0.00704968
0.0230597
-0.00667484
0.0235749
-0.00629708
0.024059
-0.00595867
0.0245134
-0.0055942
0.024938
-0.00522575
0.0253328
-0.00485579
0.0256976
-0.0044844
0.0260322
-0.00415371
0.0263372
-0.00378949
0.0266128
-0.00342419
0.0268591
-0.00305917
0.0270763
-0.00269471
0.027265
-0.00234057
0.0274255
-0.00195334
0.0275583
-0.00158931
0.0276636
-0.00126337
0.0277421
-0.000974142
-0.0007199
0.0277945
0.00578205
-0.019244
-0.0047688
0.00678619
-0.0182901
0.00778105
-0.0172814
0.00876409
-0.0163101
0.0097353
-0.0156104
0.0106939
-0.0149818
0.0116367
-0.0142773
0.0125663
-0.0138405
0.0134784
-0.0132525
0.0143725
-0.0127483
0.0152495
-0.0123209
0.0161066
-0.0118425
0.0169408
-0.0113661
0.017754
-0.0109519
0.0185449
-0.0105254
0.0193095
-0.010083
0.020048
-0.0096702
0.0207607
-0.00926126
0.0214464
-0.00884662
0.0221029
-0.00843962
0.0227294
-0.00804819
0.0233269
-0.00764711
0.0238945
-0.00724253
0.024432
-0.00683451
0.0249373
-0.00646405
0.025412
-0.00606884
0.0258557
-0.00566951
0.0262684
-0.00526849
0.02665
-0.00486594
0.0269999
-0.00450362
0.0273189
-0.00410849
0.027607
-0.00371236
0.0278645
-0.00331665
0.0280915
-0.00292171
0.0282885
-0.00253751
0.0284559
-0.00212078
0.0285941
-0.00172754
0.0287036
-0.00137285
0.0287849
-0.00105549
-0.000773856
0.0288389
0.00596448
-0.0202961
-0.00491242
0.00700703
-0.0193326
0.0080398
-0.0183142
0.00906026
-0.0173305
0.0100682
-0.0166184
0.0110628
-0.0159764
0.0120411
-0.0152556
0.0130051
-0.0148045
0.0139511
-0.0141985
0.0148783
-0.0136755
0.0157875
-0.0132301
0.016676
-0.012731
0.0175412
-0.0122312
0.0183844
-0.0117952
0.0192046
-0.0113457
0.0199981
-0.0108765
0.0207648
-0.0104369
0.0215049
-0.0100014
0.0222174
-0.00955911
0.0229
-0.00912215
0.0235519
-0.0087001
0.0241738
-0.00826904
0.0247651
-0.0078338
0.0253251
-0.00739457
0.0258521
-0.00699106
0.0263473
-0.006564
0.0268104
-0.00613261
0.0272412
-0.00569931
0.0276396
-0.00526432
0.028005
-0.00486901
0.028338
-0.00444158
0.0286389
-0.0040132
0.0289076
-0.00358535
0.0291443
-0.00315847
0.0293495
-0.00274271
0.0295238
-0.002295
0.0296673
-0.0018711
0.0297807
-0.00148624
0.0298646
-0.00113935
-0.000828959
0.0299197
0.00615329
-0.0213889
-0.00506052
0.00723613
-0.0204155
0.00830867
-0.0193867
0.00936839
-0.0183902
0.0104149
-0.0176649
0.0114474
-0.0170088
0.0124628
-0.016271
0.0134631
-0.0158049
0.0144446
-0.0151799
0.0154066
-0.0146375
0.0163496
-0.0141732
0.0172712
-0.0136526
0.0181687
-0.0131288
0.0190435
-0.01267
0.0198944
-0.0121965
0.0207178
-0.0116999
0.0215138
-0.0112329
0.0222824
-0.0107699
0.0230225
-0.0102992
0.0237318
-0.00983151
0.0244097
-0.00937803
0.0250567
-0.00891604
0.0256721
-0.00844918
0.0262552
-0.00797771
0.0268043
-0.00754008
0.0273203
-0.00708002
0.027803
-0.00661536
0.0282522
-0.0061485
0.0286676
-0.00567975
0.0290487
-0.00525004
0.029396
-0.00478889
0.0297096
-0.0043268
0.0299895
-0.00386532
0.0302361
-0.00340497
0.0304495
-0.00295612
0.0306304
-0.00247589
0.0307791
-0.00201982
0.0308961
-0.00160327
0.0309821
-0.00122537
-0.000884752
0.0310379
0.00634838
-0.0225243
-0.00521298
0.0074734
-0.0215405
0.00858762
-0.0205009
0.00968847
-0.0194911
0.0107755
-0.0187519
0.0118476
-0.0180809
0.012902
-0.0173255
0.0139404
-0.0168432
0.0149592
-0.0161987
0.0159576
-0.0156359
0.0169361
-0.0151518
0.0178923
-0.0146088
0.0188237
-0.0140601
0.0197314
-0.0135777
0.0206143
-0.0130794
0.021469
-0.0125546
0.0222954
-0.0120593
0.0230934
-0.011568
0.0238621
-0.0110679
0.0245991
-0.0105686
0.0253038
-0.0100827
0.0259766
-0.0095888
0.0266166
-0.00908925
0.0272234
-0.00858444
0.0277949
-0.00811159
0.0283321
-0.00761729
0.0288349
-0.00711809
0.0293027
-0.00661635
0.0297354
-0.00611248
0.0301323
-0.00564692
0.030494
-0.00515057
0.0308205
-0.00465326
0.0311117
-0.0041566
0.031368
-0.00366123
0.0315895
-0.00317768
0.031777
-0.00266333
0.0319307
-0.0021735
0.032051
-0.00172367
0.0321388
-0.00131316
-0.000940729
0.0321948
0.00654969
-0.0237042
-0.00536971
0.00771885
-0.0227096
0.00887666
-0.0216587
0.0100205
-0.020635
0.0111499
-0.0198812
0.0122635
-0.0191946
0.0133588
-0.0184208
0.014437
-0.0179215
0.0154949
-0.0172565
0.0165315
-0.0166725
0.0175472
-0.0161675
0.0185397
-0.0156012
0.0195065
-0.015027
0.0204486
-0.0145198
0.0213648
-0.0139956
0.0222521
-0.0134419
0.0231101
-0.0129172
0.0239387
-0.0123966
0.0247369
-0.0118661
0.0255026
-0.0113342
0.0262349
-0.010815
0.0269342
-0.0102881
0.0275996
-0.00975469
0.0282305
-0.00921537
0.0288251
-0.00870611
0.029384
-0.00817629
0.0299072
-0.0076412
0.030394
-0.0071032
0.0308443
-0.00656276
0.0312573
-0.00605988
0.0316335
-0.0055268
0.0319729
-0.0049927
0.0322756
-0.00445926
0.0325416
-0.00392723
0.0327712
-0.00340731
0.0329651
-0.00285718
0.0331235
-0.00233191
0.0332469
-0.00184711
0.033336
-0.00140229
-0.000996338
0.0333916
0.00675719
-0.0249308
-0.00553062
0.00797247
-0.0239249
0.00917584
-0.0228621
0.0103647
-0.0218239
0.0115383
-0.0210548
0.0126954
-0.0203517
0.0138334
-0.0195588
0.0149533
-0.0190414
0.016052
-0.0183552
0.0171286
-0.017749
0.0181832
-0.0172221
0.0192136
-0.0166316
0.0202174
-0.0160308
0.0211954
-0.0154979
0.0221465
-0.0149468
0.0230677
-0.014363
0.0239585
-0.0138081
0.024819
-0.013257
0.0256479
-0.012695
0.0264432
-0.0121295
0.027204
-0.0115759
0.0279306
-0.0110147
0.0286222
-0.0104463
0.0292779
-0.00987116
0.0298961
-0.00932423
0.0304773
-0.00875753
0.0310212
-0.00818515
0.0315275
-0.00760944
0.0319956
-0.00703094
0.032425
-0.00648919
0.0328159
-0.00591778
0.0331685
-0.00534525
0.0334826
-0.00477337
0.0337583
-0.00420298
0.033996
-0.00364497
0.0341961
-0.0030573
0.034359
-0.00249481
0.0344852
-0.00197326
0.0345752
-0.00149232
-0.00105099
0.0346298
0.00697088
-0.026206
-0.00569565
0.00823431
-0.0251884
0.00948527
-0.0241131
0.0107211
-0.0230597
0.0119409
-0.0222746
0.0131434
-0.0215542
0.014326
-0.0207414
0.0154896
-0.020205
0.016631
-0.0194966
0.0177493
-0.0188673
0.0188445
-0.0183174
0.0199145
-0.0177016
0.020957
-0.0170732
0.0219725
-0.0165135
0.02296
-0.0159342
0.0239165
-0.0153195
0.0248415
-0.0147332
0.025735
-0.0141505
0.0265958
-0.0135558
0.0274218
-0.0129555
0.0282121
-0.0123662
0.0289669
-0.0117695
0.0296854
-0.0111647
0.0303668
-0.0105525
0.0310092
-0.00996661
0.0316132
-0.00936158
0.0321785
-0.00875044
0.0327046
-0.00813549
0.033191
-0.00751737
0.0336369
-0.00693514
0.0340429
-0.00632373
0.0344087
-0.00571108
0.0347344
-0.00509902
0.0350199
-0.00448849
0.0352655
-0.00389057
0.0354717
-0.00326354
0.0356389
-0.00266198
0.0357674
-0.00210177
0.0358579
-0.00158277
-0.00110408
0.0359109
0.00719075
-0.027532
-0.00586475
0.00850444
-0.0265021
0.00980506
-0.0254137
0.0110899
-0.0243446
0.012358
-0.0235426
0.0136079
-0.0228041
0.0148371
-0.0219706
0.0160462
-0.0214141
0.0172322
-0.0206826
0.0183941
-0.0200292
0.0195318
-0.0194551
0.0206432
-0.018813
0.0217259
-0.018156
0.0227806
-0.0175681
0.023806
-0.0169596
0.0247992
-0.0163128
0.0257599
-0.0156939
0.0266878
-0.0150783
0.0275816
-0.0144496
0.0284394
-0.0138134
0.0292604
-0.0131871
0.0300444
-0.0125535
0.0307907
-0.0119111
0.0314985
-0.0112603
0.0321658
-0.010634
0.0327933
-0.0099891
0.0333805
-0.00933763
0.0339269
-0.00868185
0.0344319
-0.00802245
0.0348949
-0.00739807
0.0353161
-0.00674493
0.0356954
-0.00609038
0.0360327
-0.00543632
0.036328
-0.0047838
0.0365815
-0.00414408
0.0367937
-0.00347575
0.0369649
-0.00283315
0.0370954
-0.00223228
0.0371857
-0.00167316
-0.00115497
0.0372366
0.00741683
-0.028911
-0.00603789
0.00878294
-0.0278682
0.0101354
-0.0267661
0.0114714
-0.0256806
0.0127898
-0.024861
0.0140891
-0.0241035
0.0153669
-0.0232484
0.0166235
-0.0226707
0.0178561
-0.0219152
0.0190635
-0.0212366
0.0202455
-0.0206372
0.0214001
-0.0199675
0.0225249
-0.0192808
0.0236204
-0.0186636
0.0246853
-0.0180246
0.0257169
-0.0173444
0.0267147
-0.0166916
0.0276782
-0.0160419
0.0286065
-0.0153778
0.0294973
-0.0147043
0.0303499
-0.0140398
0.0311642
-0.0133678
0.0319393
-0.0126861
0.0326743
-0.0119953
0.0333674
-0.0113271
0.0340191
-0.0106408
0.0346288
-0.00994734
0.035196
-0.00924904
0.0357202
-0.00854664
0.0362004
-0.00787835
0.0366372
-0.00718167
0.0370301
-0.00648335
0.0373792
-0.00578539
0.0376844
-0.00508894
0.0379457
-0.00440545
0.0381638
-0.00369381
0.0383387
-0.00300809
0.0384709
-0.00236444
0.0385607
-0.00176299
-0.00120303
0.0386088
0.00764919
-0.0303451
-0.00621504
0.00906994
-0.0292889
0.0104764
-0.0281725
0.0118657
-0.02707
0.0132366
-0.0262319
0.0145875
-0.0254544
0.015916
-0.0245768
0.0172222
-0.023977
0.0185033
-0.0231963
0.0197581
-0.0224915
0.0209864
-0.0218655
0.022186
-0.0211671
0.0233547
-0.0204495
0.0244928
-0.0198017
0.0255989
-0.0191307
0.0266704
-0.018416
0.0277068
-0.017728
0.0287075
-0.0170426
0.0296715
-0.0163418
0.0305967
-0.0156295
0.0314822
-0.0149252
0.0323278
-0.0142135
0.0331327
-0.013491
0.0338959
-0.0127586
0.0346156
-0.0120468
0.0352922
-0.0113174
0.035925
-0.0105802
0.0365136
-0.00983763
0.0370574
-0.00909044
0.0375555
-0.0083764
0.0380081
-0.00763427
0.038415
-0.00689025
0.038776
-0.0061464
0.039091
-0.00540398
0.0393602
-0.00467465
0.039584
-0.00391757
0.0397624
-0.00318657
0.0398959
-0.00249787
0.0399847
-0.00185178
-0.00124762
0.0400292
0.00788788
-0.0318368
-0.0063962
0.00936557
-0.0307666
0.0108283
-0.0296352
0.0122732
-0.0285149
0.0136987
-0.0276574
0.0151034
-0.0268591
0.0164847
-0.0259581
0.0178426
-0.0253349
0.0191744
-0.024528
0.0204787
-0.0237958
0.0217553
-0.023142
0.0230018
-0.0224137
0.0242162
-0.0216639
0.0253986
-0.0209841
0.0265477
-0.0202798
0.0276609
-0.0195291
0.0287374
-0.0188045
0.0297769
-0.0180821
0.030778
-0.017343
0.0317389
-0.0165904
0.0326585
-0.0158448
0.0335366
-0.0150916
0.0343724
-0.0143267
0.0351647
-0.0135509
0.0359119
-0.0127939
0.0366142
-0.0120196
0.037271
-0.011237
0.0378816
-0.0104483
0.0384456
-0.00965438
0.0389618
-0.00889268
0.0394307
-0.00810311
0.0398518
-0.00731134
0.0402249
-0.00651952
0.0405499
-0.00572902
0.0408269
-0.00495166
0.0410563
-0.00414692
0.0412381
-0.00336834
0.0413724
-0.00263225
0.0414597
-0.00193905
-0.00128811
0.0415002
0.00813301
-0.0333884
-0.00658141
0.00967001
-0.0323036
0.0111913
-0.0311566
0.0126941
-0.0300176
0.0141766
-0.02914
0.0156374
-0.0283198
0.0170737
-0.0273945
0.0184855
-0.0267467
0.0198701
-0.0259125
0.021226
-0.0251517
0.0225528
-0.0244688
0.0238483
-0.0237092
0.0251104
-0.022926
0.026339
-0.0222127
0.0275329
-0.0214737
0.0286894
-0.0206856
0.0298077
-0.0199229
0.0308875
-0.0191618
0.0319273
-0.0183828
0.0329253
-0.0175884
0.0338803
-0.0167999
0.0347922
-0.0160035
0.0356599
-0.0151944
0.0364825
-0.0143735
0.0372582
-0.0135696
0.037987
-0.0127485
0.0386685
-0.0119185
0.0393019
-0.0110817
0.0398866
-0.0102391
0.0404216
-0.00942767
0.040907
-0.00858858
0.0413426
-0.00774694
0.0417281
-0.00690498
0.0420632
-0.00606416
0.0423481
-0.00523651
0.0425829
-0.00438178
0.0427678
-0.00355321
0.0429028
-0.00276724
0.042988
-0.00202435
-0.00132391
0.0430239
0.00838469
-0.0350024
-0.00677069
0.00998346
-0.0339024
0.0115658
-0.0327389
0.0131289
-0.0315807
0.0146708
-0.0306819
0.0161898
-0.0298389
0.0176835
-0.0288881
0.0191515
-0.0282147
0.020591
-0.0273521
0.0220007
-0.0265614
0.0233799
-0.025848
0.0247264
-0.0250557
0.0260381
-0.0242377
0.0273149
-0.0234895
0.0285555
-0.0227142
0.0297571
-0.0218873
0.030919
-0.0210849
0.0320407
-0.0202834
0.0331208
-0.0194629
0.0341573
-0.018625
0.0351492
-0.0177918
0.0360962
-0.0169504
0.0369971
-0.0160953
0.037851
-0.0152275
0.0386561
-0.0143747
0.0394125
-0.0135049
0.0401195
-0.0126254
0.0407764
-0.0117385
0.0413824
-0.0108451
0.0419367
-0.00998194
0.0424393
-0.00909115
0.0428897
-0.00819741
0.0432878
-0.00730302
0.0436331
-0.00640955
0.0439259
-0.00552923
0.0441661
-0.00462206
0.0443539
-0.00374099
0.0444892