/*--------------------------------*- C++ -*----------------------------------*\
| =========                 |                                                 |
| \\      /  F ield         | OpenFOAM: The Open Source CFD Toolbox           |
|  \\    /   O peration     | Version:  3.0.1                                 |
|   \\  /    A nd           | Web:      www.OpenFOAM.org                      |
|    \\/     M anipulation  |                                                 |
\*---------------------------------------------------------------------------*/
FoamFile
{
    version     2.0;
    format      ascii;
    class       volVectorField;
    location    "100";
    object      U;
}
// * * * * * * * * * * * * * * * * * * * * * * * * * * * * * * * * * * * * * //

dimensions      [0 1 -1 0 0 0 0];

internalField   nonuniform List<vector> 
58000
(
(0.369094 0.752407 -6.71624e-21)
(0.463618 0.916136 1.46709e-20)
(0.579909 1.00329 -7.12603e-23)
(0.695851 1.02432 -8.09072e-21)
(0.798424 1.00199 -1.68293e-20)
(0.88333 0.952351 0)
(0.952585 0.893515 -1.73244e-20)
(1.00789 0.831218 -1.63055e-21)
(1.0547 0.77046 1.99191e-20)
(1.09305 0.715396 0)
(1.12436 0.664959 2.30183e-20)
(1.15025 0.619373 2.09369e-20)
(1.17002 0.579863 -7.22356e-20)
(1.18435 0.545339 2.59358e-20)
(1.19531 0.513915 2.2452e-20)
(1.20392 0.485569 4.84377e-20)
(1.20999 0.460225 -7.06524e-20)
(1.2143 0.436994 0)
(1.21744 0.415011 4.74522e-20)
(1.21961 0.394132 -7.15963e-20)
(1.22077 0.374795 4.18422e-23)
(1.22098 0.356698 2.39822e-20)
(1.22077 0.33935 1.13904e-20)
(1.21978 0.322269 0)
(1.21855 0.306028 2.18588e-20)
(1.21645 0.29082 -1.09902e-20)
(1.21405 0.276235 0)
(1.21147 0.262081 3.71795e-22)
(1.20836 0.248088 0)
(1.20521 0.23475 -1.05245e-20)
(1.20155 0.222197 5.18852e-20)
(1.19782 0.21005 -5.15615e-20)
(1.19408 0.198158 -3.08664e-20)
(1.19019 0.18637 8.06381e-20)
(1.18614 0.174721 -2.01116e-20)
(1.18025 0.163183 -1.01276e-20)
(1.17114 0.152224 1.48609e-20)
(1.16172 0.142727 -9.61367e-21)
(1.15357 0.134791 1.42874e-20)
(1.15347 0.129384 0)
(0.514897 0.462977 -9.55277e-21)
(0.574085 0.546771 0)
(0.648294 0.619645 -3.96586e-23)
(0.728719 0.676765 4.17202e-23)
(0.810458 0.715664 5.40322e-21)
(0.891544 0.736772 3.3488e-21)
(0.963965 0.739851 -1.22885e-20)
(1.02757 0.728752 4.63772e-21)
(1.08073 0.706523 3.06675e-20)
(1.12184 0.678357 -1.75186e-20)
(1.1542 0.646203 0)
(1.17886 0.611858 -3.97334e-20)
(1.19718 0.57927 2.57182e-20)
(1.21112 0.548335 1.54613e-20)
(1.22199 0.517961 -1.58635e-20)
(1.23001 0.489623 0)
(1.23579 0.464056 1.63443e-20)
(1.2401 0.440076 0)
(1.24326 0.416964 6.28063e-20)
(1.24535 0.395194 -9.46064e-20)
(1.24655 0.37532 0)
(1.2471 0.356628 7.95894e-20)
(1.24711 0.338468 -6.28847e-20)
(1.24654 0.320691 0)
(1.24546 0.304086 -2.34636e-20)
(1.24402 0.288689 0)
(1.24222 0.273727 0)
(1.24007 0.25905 2.30249e-20)
(1.23753 0.244604 0)
(1.23472 0.230981 -2.26836e-20)
(1.23176 0.218197 2.98766e-20)
(1.22857 0.205679 -2.95807e-20)
(1.22512 0.193297 2.18606e-20)
(1.22135 0.18099 -1.47569e-20)
(1.21728 0.168969 0)
(1.2127 0.157494 -2.18053e-20)
(1.20799 0.147229 1.43218e-20)
(1.20336 0.13844 0)
(1.19951 0.130553 -3.58663e-21)
(1.19655 0.123434 7.14658e-21)
(0.584918 0.411991 4.61181e-21)
(0.607842 0.470876 -2.1082e-21)
(0.641544 0.528352 -6.2603e-21)
(0.686149 0.579778 -4.44816e-22)
(0.739285 0.621019 4.70682e-22)
(0.798372 0.65111 -6.19716e-22)
(0.857549 0.668484 3.50162e-21)
(0.915627 0.674425 0)
(0.97007 0.670366 -9.04855e-21)
(1.01768 0.65793 8.483e-21)
(1.05986 0.638981 1.30552e-20)
(1.09608 0.615441 -7.38622e-22)
(1.12497 0.589846 0)
(1.14824 0.5632 3.34828e-20)
(1.16747 0.535911 -1.79045e-20)
(1.18243 0.509521 0)
(1.19373 0.484655 0)
(1.20259 0.460767 0)
(1.20964 0.437658 -1.00513e-20)
(1.21495 0.415817 1.1042e-20)
(1.2187 0.395534 0)
(1.22135 0.376262 1.05074e-20)
(1.22319 0.357617 0)
(1.22432 0.339555 0)
(1.22468 0.322623 2.19587e-20)
(1.2244 0.306691 -4.39991e-20)
(1.22364 0.291205 4.39594e-20)
(1.22248 0.276128 1.07797e-20)
(1.22092 0.26143 -2.18527e-20)
(1.21897 0.247524 -1.61429e-20)
(1.2167 0.234317 0)
(1.21414 0.221392 1.04838e-20)
(1.2113 0.208731 0)
(1.20817 0.196332 2.09322e-22)
(1.20476 0.18441 -1.56814e-20)
(1.20106 0.173039 1.0507e-20)
(1.19711 0.162194 0)
(1.1931 0.151903 0)
(1.18933 0.141921 -2.55496e-21)
(1.18567 0.131797 -2.76573e-21)
(0.653958 0.377627 4.01455e-21)
(0.667707 0.418578 1.3145e-21)
(0.686379 0.460123 3.47408e-22)
(0.711787 0.500219 3.14243e-23)
(0.744326 0.536105 -2.61102e-21)
(0.783723 0.566334 0)
(0.826908 0.58829 3.58013e-22)
(0.872383 0.602259 0)
(0.918221 0.608162 -3.93708e-21)
(0.961141 0.606422 -1.95244e-21)
(1.00148 0.598329 -7.07734e-21)
(1.03832 0.58491 6.6681e-21)
(1.06965 0.567818 -1.01138e-20)
(1.09634 0.548153 -2.21801e-20)
(1.11948 0.526458 -1.26891e-20)
(1.13841 0.504169 1.25399e-20)
(1.15345 0.482222 -1.24433e-20)
(1.16573 0.460465 0)
(1.17585 0.438874 -6.11065e-21)
(1.18384 0.418043 -2.96512e-20)
(1.18991 0.398411 2.97628e-20)
(1.19457 0.379588 -7.94181e-21)
(1.19816 0.361239 0)
(1.2008 0.34335 0)
(1.20247 0.326475 2.33968e-20)
(1.20336 0.310557 -3.1406e-20)
(1.20363 0.295067 3.16466e-20)
(1.20337 0.279949 5.90746e-23)
(1.2026 0.265184 -6.31457e-20)
(1.20137 0.25117 3.96925e-20)
(1.19976 0.237859 -1.56744e-20)
(1.19781 0.224847 -8.02035e-21)
(1.19551 0.212108 3.11877e-20)
(1.1929 0.199635 -1.15328e-20)
(1.19 0.187622 3.95332e-21)
(1.1869 0.176146 -3.74953e-21)
(1.18362 0.165074 -3.72981e-21)
(1.18021 0.154372 0)
(1.17681 0.143991 1.87169e-21)
(1.17334 0.133848 -1.99297e-21)
(0.698772 0.357928 -1.91839e-21)
(0.708162 0.388785 -3.73307e-21)
(0.720299 0.420466 1.17564e-21)
(0.736586 0.45201 2.3543e-21)
(0.757951 0.481868 4.35375e-23)
(0.784938 0.509128 0)
(0.816224 0.531293 -2.13132e-22)
(0.850959 0.548131 -5.72893e-23)
(0.88791 0.558997 0)
(0.924421 0.563384 2.10312e-21)
(0.960427 0.562148 3.14154e-21)
(0.994881 0.55581 0)
(1.02564 0.545221 -6.48097e-21)
(1.05304 0.531352 7.40039e-21)
(1.07778 0.51482 0)
(1.09885 0.496749 -1.61096e-20)
(1.11626 0.478048 4.5655e-20)
(1.13099 0.458844 8.32428e-22)
(1.14351 0.439286 -9.14959e-21)
(1.15374 0.419994 0)
(1.16181 0.401453 0)
(1.16829 0.383421 0)
(1.17353 0.365677 1.09227e-20)
(1.17767 0.348267 0)
(1.18063 0.331728 0)
(1.18266 0.316011 0)
(1.18397 0.300657 1.78986e-20)
(1.18465 0.285634 -2.36524e-20)
(1.18476 0.270939 2.94686e-20)
(1.18429 0.256952 -1.79289e-20)
(1.18336 0.243615 0)
(1.18203 0.230561 0)
(1.18033 0.217775 -6.02101e-21)
(1.17828 0.205256 1.76993e-20)
(1.17593 0.193184 -2.32798e-23)
(1.17335 0.181605 -1.44281e-20)
(1.17058 0.170349 8.71798e-21)
(1.16763 0.159359 0)
(1.16454 0.148642 0)
(1.16124 0.138211 -2.9688e-21)
(0.734257 0.344472 0)
(0.741391 0.368547 2.42835e-21)
(0.750036 0.393357 4.05653e-21)
(0.761298 0.41845 -3.57601e-21)
(0.776121 0.442945 7.57902e-22)
(0.795233 0.466381 -1.76143e-21)
(0.818215 0.486764 -1.8363e-22)
(0.844659 0.503774 2.64008e-22)
(0.873961 0.516595 6.70693e-22)
(0.904155 0.524305 -2.63115e-21)
(0.93507 0.527399 -3.79897e-23)
(0.965804 0.525993 -9.00484e-21)
(0.994369 0.520354 1.47297e-20)
(1.02075 0.511259 -8.21287e-21)
(1.04535 0.49925 1.07794e-20)
(1.06706 0.485123 -1.0209e-20)
(1.0856 0.469693 0)
(1.10174 0.453235 0)
(1.11583 0.435973 0)
(1.12767 0.418506 0)
(1.13729 0.401353 -8.53483e-21)
(1.14524 0.384408 -8.31378e-21)
(1.15186 0.367538 2.50766e-20)
(1.15728 0.350828 -1.71232e-20)
(1.16141 0.334797 0)
(1.16448 0.319444 8.621e-21)
(1.16675 0.304375 -1.34138e-20)
(1.16831 0.289574 1.8088e-20)
(1.16922 0.275049 -3.17385e-20)
(1.16947 0.261162 9.08716e-21)
(1.1692 0.247869 -1.82271e-20)
(1.16848 0.234834 1.82048e-20)
(1.16734 0.222046 -2.28525e-22)
(1.16583 0.209504 4.64798e-21)
(1.16398 0.197374 0)
(1.16187 0.185696 0)
(1.15954 0.174299 -4.4666e-21)
(1.15697 0.16313 4.45557e-21)
(1.1542 0.152225 0)
(1.15118 0.141646 -2.2018e-21)
(0.761918 0.334957 8.10741e-22)
(0.767877 0.354382 -1.12656e-21)
(0.774698 0.37436 -6.00024e-22)
(0.783204 0.394672 1.10856e-21)
(0.794197 0.414824 2.55565e-21)
(0.808374 0.434637 1.75217e-21)
(0.825729 0.452623 3.97633e-22)
(0.846141 0.468522 -2.72308e-22)
(0.86941 0.481575 0)
(0.894168 0.490751 0)
(0.920274 0.496308 1.12543e-21)
(0.947038 0.498118 0)
(0.972763 0.496045 0)
(0.997248 0.490653 -6.50229e-21)
(1.02072 0.482373 3.3403e-21)
(1.04205 0.471701 -8.02951e-21)
(1.06081 0.459308 4.46358e-21)
(1.07756 0.445526 0)
(1.09251 0.430607 5.1308e-21)
(1.10538 0.415093 6.24799e-21)
(1.11612 0.3995 -1.23981e-20)
(1.12519 0.383826 1.92905e-20)
(1.13292 0.368012 3.28157e-22)
(1.13941 0.352172 -1.31714e-20)
(1.14454 0.33681 7.16573e-21)
(1.14854 0.321965 -1.36822e-20)
(1.15168 0.307305 -1.39653e-20)
(1.15404 0.292832 -6.9051e-21)
(1.15569 0.278569 7.35509e-21)
(1.15664 0.264863 -1.7718e-20)
(1.15699 0.251684 2.87213e-20)
(1.15685 0.238724 4.04406e-23)
(1.15626 0.225977 -2.88076e-20)
(1.15526 0.213446 3.67055e-21)
(1.15389 0.201287 0)
(1.15222 0.189539 1.06059e-20)
(1.15028 0.178039 -3.63282e-21)
(1.14807 0.166742 0)
(1.1456 0.155698 1.7548e-21)
(1.14286 0.144984 1.95397e-21)
(0.784347 0.327927 -7.59371e-22)
(0.789603 0.344 3.8957e-22)
(0.795372 0.360462 1.2336e-22)
(0.802271 0.377206 8.23923e-24)
(0.810952 0.393947 -1.08235e-22)
(0.822004 0.410659 -2.02741e-21)
(0.835582 0.42625 4.65522e-22)
(0.851709 0.440551 -7.65587e-23)
(0.870411 0.452942 8.06169e-23)
(0.890772 0.462442 0)
(0.912722 0.469182 5.22823e-22)
(0.935775 0.472907 -2.88428e-21)
(0.958554 0.473249 1.43693e-21)
(0.980786 0.470581 -6.61454e-21)
(1.0026 0.465219 8.24845e-21)
(1.02294 0.457414 -8.7573e-21)
(1.04129 0.447679 1.01091e-20)
(1.05804 0.436351 0)
(1.07329 0.423667 -4.33174e-21)
(1.08671 0.410093 4.6347e-21)
(1.09815 0.396114 -4.89264e-21)
(1.10802 0.381801 9.92017e-21)
(1.11659 0.367149 -2.03212e-20)
(1.12393 0.352297 1.03293e-20)
(1.12989 0.337716 5.60649e-21)
(1.13468 0.323484 5.68951e-21)
(1.13858 0.309332 -1.12563e-20)
(1.14166 0.295278 2.26498e-20)
(1.144 0.281357 0)
(1.14557 0.267899 1.75252e-20)
(1.14651 0.254892 -1.71312e-20)
(1.14692 0.242058 1.16104e-20)
(1.14685 0.229396 -8.60853e-21)
(1.14633 0.216912 2.97389e-21)
(1.1454 0.204756 2.82294e-21)
(1.14413 0.19297 -1.41957e-22)
(1.14256 0.181401 -2.94382e-21)
(1.14068 0.170014 0)
(1.13851 0.158868 -1.42165e-21)
(1.13604 0.148045 1.50897e-21)
(0.802885 0.32255 0)
(0.807703 0.336128 0)
(0.812838 0.349966 -2.5109e-21)
(0.818762 0.36401 1.25834e-21)
(0.825998 0.378093 -5.27006e-22)
(0.835032 0.392261 2.15156e-21)
(0.846061 0.405706 -1.14085e-21)
(0.859168 0.418338 0)
(0.87449 0.429676 0)
(0.89142 0.438865 -8.10788e-22)
(0.909949 0.445969 -1.83183e-21)
(0.929764 0.450695 -1.63862e-22)
(0.949782 0.452561 4.08478e-21)
(0.969729 0.451795 -6.11718e-22)
(0.989678 0.448614 -2.9551e-21)
(1.0087 0.443087 0)
(1.02625 0.435579 0)
(1.04257 0.426395 0)
(1.0577 0.415739 0)
(1.07128 0.403994 -7.05451e-21)
(1.08309 0.391593 7.13609e-21)
(1.09346 0.378651 1.15746e-20)
(1.10261 0.365205 -1.61635e-20)
(1.11058 0.351397 4.20174e-21)
(1.1172 0.337669 0)
(1.12264 0.324128 -8.94187e-21)
(1.12719 0.310559 8.96596e-21)
(1.13091 0.296994 -4.75866e-21)
(1.13385 0.283479 0)
(1.136 0.270329 -4.87564e-21)
(1.13747 0.257549 4.78811e-21)
(1.13839 0.244888 1.8961e-20)
(1.13879 0.232353 -1.90244e-20)
(1.13872 0.219953 9.48551e-21)
(1.13821 0.207834 -2.43881e-21)
(1.13732 0.196042 -1.17901e-20)
(1.13608 0.184438 4.72017e-21)
(1.13451 0.172994 2.35277e-21)
(1.13262 0.161774 -3.51428e-21)
(1.1304 0.150863 1.23506e-21)
(0.818487 0.318312 0)
(0.823015 0.329979 0)
(0.827746 0.341809 1.43316e-21)
(0.833052 0.353775 -1.41988e-21)
(0.839356 0.365776 -9.07819e-23)
(0.847051 0.377886 -1.01972e-21)
(0.856333 0.389501 1.02461e-21)
(0.867303 0.400581 8.46518e-23)
(0.880139 0.410762 -9.60909e-23)
(0.894437 0.419328 -5.82133e-22)
(0.910232 0.426315 -1.56509e-22)
(0.927336 0.431436 -1.12154e-22)
(0.944914 0.43418 1.24844e-21)
(0.962718 0.434673 2.44511e-21)
(0.980806 0.433054 3.52833e-21)
(0.998376 0.429268 5.58128e-23)
(1.0149 0.423557 -3.80801e-21)
(1.03053 0.416175 0)
(1.04526 0.40729 -4.76586e-21)
(1.05869 0.397198 5.21537e-21)
(1.0706 0.386274 -6.00884e-21)
(1.08122 0.374656 3.18574e-21)
(1.09073 0.362398 2.61209e-22)
(1.09913 0.349647 3.7699e-21)
(1.10625 0.336804 -6.97021e-21)
(1.11222 0.323997 0)
(1.1173 0.31106 1.10956e-20)
(1.12154 0.298034 -1.88294e-20)
(1.12501 0.284974 1.53316e-20)
(1.12767 0.27218 -1.17511e-20)
(1.12962 0.259671 -7.85046e-21)
(1.131 0.247227 7.83821e-21)
(1.13184 0.234857 7.92596e-21)
(1.13218 0.222578 -7.8853e-21)
(1.13205 0.21053 3.96041e-21)
(1.1315 0.198764 1.10775e-22)
(1.13058 0.187155 0)
(1.1293 0.175684 0)
(1.12766 0.164417 1.90818e-21)
(1.12568 0.153439 0)
(0.831814 0.31488 6.14262e-22)
(0.836138 0.325048 1.41452e-22)
(0.8406 0.335308 -1.44737e-22)
(0.845496 0.345645 3.96768e-24)
(0.851176 0.355997 0)
(0.857958 0.366446 6.20179e-22)
(0.866017 0.37653 -1.86207e-22)
(0.875458 0.386241 1.90196e-22)
(0.886459 0.395304 1.41997e-22)
(0.898751 0.40313 -1.4296e-22)
(0.912392 0.409743 6.75574e-22)
(0.927278 0.414886 0)
(0.94277 0.418065 -1.26754e-21)
(0.958663 0.419338 6.11453e-22)
(0.975007 0.418791 4.99869e-21)
(0.991131 0.416293 -5.47337e-21)
(1.00654 0.411986 9.77904e-21)
(1.02133 0.406076 -3.42294e-21)
(1.03547 0.398688 4.22627e-21)
(1.04856 0.390044 -4.62599e-21)
(1.06035 0.380456 0)
(1.07102 0.370069 5.2926e-21)
(1.0807 0.358943 5.16463e-21)
(1.08936 0.34722 0)
(1.09683 0.33526 0)
(1.10319 0.323204 5.81772e-21)
(1.10869 0.310922 3.04427e-21)
(1.11337 0.298466 -2.98768e-21)
(1.11728 0.285895 6.22383e-21)
(1.12037 0.273492 9.72532e-21)
(1.12275 0.261292 -6.52073e-21)
(1.12454 0.249099 0)
(1.12577 0.236929 -6.67001e-21)
(1.12649 0.224802 6.63498e-21)
(1.1267 0.212857 3.339e-21)
(1.12647 0.201148 9.29162e-24)
(1.12584 0.189565 -3.31764e-21)
(1.12481 0.178095 0)
(1.12341 0.166805 -4.91251e-21)
(1.12165 0.155781 0)
(0.843339 0.312024 -7.71864e-22)
(0.847512 0.320993 8.34571e-22)
(0.851785 0.330001 7.08305e-22)
(0.856399 0.339041 -7.25082e-22)
(0.861645 0.348071 -6.15736e-22)
(0.867785 0.357174 -5.68863e-22)
(0.87497 0.365986 -3.5135e-22)
(0.883296 0.374519 1.85159e-22)
(0.892932 0.382563 1.35931e-23)
(0.903689 0.389635 2.37585e-22)
(0.915639 0.395757 -1.13445e-21)
(0.928733 0.400707 -2.92007e-22)
(0.942479 0.404031 3.5029e-21)
(0.956714 0.405747 -2.8054e-21)
(0.971489 0.405905 -2.02666e-21)
(0.986246 0.404329 2.63319e-21)
(1.00055 0.401093 -5.10359e-21)
(1.01444 0.396354 -2.81124e-21)
(1.02788 0.390201 6.84021e-21)
(1.04049 0.382793 -6.94457e-21)
(1.05202 0.374383 0)
(1.06258 0.365108 0)
(1.07227 0.355031 -3.43295e-22)
(1.08106 0.34428 0)
(1.08874 0.333174 0)
(1.09538 0.321859 -5.22648e-21)
(1.10119 0.310237 -5.03489e-21)
(1.10622 0.298362 -5.16873e-21)
(1.11049 0.286299 5.12762e-21)
(1.11395 0.274312 -2.9577e-21)
(1.11669 0.262447 -1.83807e-22)
(1.11884 0.250534 5.58329e-21)
(1.12041 0.238593 0)
(1.12145 0.226648 8.43861e-21)
(1.12197 0.214834 -5.66223e-21)
(1.12203 0.203211 -5.60561e-21)
(1.12165 0.191681 2.82724e-21)
(1.12086 0.180237 -1.41264e-21)
(1.11968 0.168947 4.29379e-21)
(1.11812 0.157895 0)
(0.853414 0.309588 4.72692e-22)
(0.857468 0.317581 -3.3507e-22)
(0.8616 0.325574 -1.85478e-22)
(0.866011 0.333564 6.07583e-22)
(0.870945 0.341521 6.44904e-22)
(0.876619 0.349523 -1.76872e-22)
(0.883163 0.357278 5.07635e-22)
(0.890661 0.364808 -3.06626e-22)
(0.899265 0.37195 -3.68453e-23)
(0.908839 0.378308 -2.17843e-22)
(0.919459 0.383903 4.46801e-22)
(0.931109 0.388547 -7.9598e-22)
(0.943409 0.391837 1.73247e-21)
(0.95623 0.393766 1.28703e-21)
(0.969625 0.394359 3.04713e-21)
(0.983136 0.393426 1.70526e-22)
(0.996376 0.390988 -2.24203e-21)
(1.00937 0.387164 9.99808e-21)
(1.02207 0.382011 -1.34882e-20)
(1.03413 0.375636 1.2021e-20)
(1.04529 0.368243 -3.16893e-21)
(1.05564 0.359953 0)
(1.06523 0.350825 -2.80665e-22)
(1.07402 0.340971 0)
(1.0818 0.330672 0)
(1.08861 0.320071 0)
(1.09465 0.309095 2.87768e-22)
(1.09993 0.297799 1.38613e-20)
(1.10448 0.286249 -1.39159e-20)
(1.10824 0.274691 -1.14125e-22)
(1.11129 0.26318 -9.63739e-21)
(1.11374 0.251568 4.83837e-21)
(1.11561 0.239878 -4.67784e-21)
(1.11693 0.228139 -7.3479e-21)
(1.11773 0.216481 -2.378e-21)
(1.11803 0.204969 4.88547e-21)
(1.11789 0.193517 0)
(1.11731 0.182122 -2.36934e-21)
(1.11632 0.170853 -2.9632e-21)
(1.11494 0.159791 6.19926e-22)
(0.862303 0.307457 3.95246e-22)
(0.866257 0.314645 0)
(0.87028 0.321803 -1.2119e-21)
(0.874538 0.32893 4.95353e-22)
(0.879237 0.336007 5.08101e-22)
(0.884564 0.343099 -9.80453e-23)
(0.890624 0.349973 0)
(0.897493 0.356651 1.26459e-22)
(0.905304 0.363006 2.46529e-23)
(0.913955 0.368711 -2.80514e-22)
(0.923522 0.373789 -5.47995e-22)
(0.934007 0.378078 -1.9705e-22)
(0.945112 0.381227 -1.37705e-22)
(0.956737 0.383216 0)
(0.968937 0.384057 -4.10665e-21)
(0.981335 0.383555 4.45424e-21)
(0.993596 0.381701 0)
(1.00573 0.37858 -4.10551e-21)
(1.01769 0.374225 2.39463e-21)
(1.02917 0.368703 -5.27887e-21)
(1.0399 0.362172 2.4559e-21)
(1.04994 0.354739 0)
(1.05935 0.346455 3.21586e-21)
(1.06805 0.337415 -3.29846e-21)
(1.07584 0.327864 0)
(1.08274 0.317938 -7.43816e-21)
(1.08892 0.307581 7.70204e-21)
(1.09438 0.296849 4.10484e-21)
(1.09914 0.285807 -7.867e-21)
(1.10314 0.274682 0)
(1.10643 0.263535 1.40934e-22)
(1.10913 0.252238 -8.18387e-21)
(1.11125 0.240817 4.32281e-21)
(1.11282 0.229304 0)
(1.11384 0.217824 2.17587e-21)
(1.11436 0.206446 -2.17503e-21)
(1.11443 0.195093 2.05865e-21)
(1.11404 0.183767 2.16524e-21)
(1.11322 0.172537 4.19768e-21)
(1.112 0.16148 2.07926e-21)
(0.870207 0.305551 0)
(0.874076 0.312063 0)
(0.878007 0.318526 5.14829e-23)
(0.882144 0.324937 -8.80346e-22)
(0.886661 0.33128 -4.62936e-23)
(0.891718 0.337616 -2.59939e-22)
(0.897404 0.343748 0)
(0.903785 0.349702 0)
(0.910975 0.355376 1.12602e-22)
(0.918896 0.360496 -1.15648e-22)
(0.92762 0.365086 9.68557e-23)
(0.937159 0.369009 -4.23841e-22)
(0.947275 0.37196 0)
(0.957891 0.373913 0)
(0.969064 0.374871 2.10518e-21)
(0.98048 0.374647 -2.532e-21)
(0.991852 0.373211 2.94692e-22)
(1.00319 0.370623 2.19694e-21)
(1.01443 0.366896 -3.72061e-21)
(1.02531 0.362069 0)
(1.03559 0.356263 2.29193e-21)
(1.04529 0.349567 2.46936e-21)
(1.05445 0.342023 0)
(1.06299 0.333712 2.91087e-21)
(1.07072 0.324843 -5.95846e-21)
(1.07763 0.315544 0)
(1.08388 0.305773 3.38887e-21)
(1.08945 0.295583 -3.3528e-21)
(1.09436 0.285034 1.01817e-20)
(1.09853 0.274338 0)
(1.10201 0.263559 7.17479e-21)
(1.10491 0.252586 3.73594e-21)
(1.10723 0.241446 3.56466e-21)
(1.109 0.230173 -3.69264e-21)
(1.11023 0.218889 3.67927e-21)
(1.11094 0.207662 0)
(1.11117 0.196428 -1.89674e-21)
(1.11095 0.18519 0)
(1.11029 0.174014 -1.88023e-21)
(1.10921 0.162975 -1.89795e-21)
(0.877286 0.303807 2.63981e-22)
(0.881077 0.309748 -3.8297e-22)
(0.884929 0.315624 9.93456e-22)
(0.888964 0.321432 3.95417e-22)
(0.893334 0.32716 -3.24081e-22)
(0.898177 0.332859 3.37975e-22)
(0.903565 0.338364 -9.42851e-23)
(0.909556 0.343701 8.41823e-23)
(0.916252 0.348785 -8.23479e-24)
(0.923586 0.353387 -1.16036e-22)
(0.931626 0.357528 1.84007e-23)
(0.940389 0.361095 1.04218e-21)
(0.949683 0.363821 -1.07139e-21)
(0.959448 0.36568 -2.01288e-22)
(0.969738 0.366668 -2.32615e-22)
(0.980294 0.366611 4.79131e-21)
(0.990867 0.365467 -2.53217e-21)
(1.00146 0.363277 2.84301e-21)
(1.01203 0.360043 -3.53732e-21)
(1.02234 0.355778 -3.85642e-23)
(1.03214 0.350574 -2.12943e-21)
(1.04148 0.344506 2.26453e-21)
(1.05035 0.337606 -9.45207e-24)
(1.05869 0.32994 0)
(1.0663 0.321686 0)
(1.07317 0.312964 -5.34629e-21)
(1.07942 0.303739 -2.77596e-21)
(1.08504 0.294061 -2.86767e-21)
(1.09004 0.283987 -1.80713e-22)
(1.09433 0.27371 -9.26464e-21)
(1.09795 0.263297 2.98603e-21)
(1.101 0.25265 0)
(1.10349 0.241799 -6.54229e-21)
(1.10542 0.230778 6.36067e-21)
(1.10681 0.219703 0)
(1.10767 0.208644 3.2559e-21)
(1.10806 0.197544 -1.61106e-21)
(1.10798 0.186408 -3.23098e-21)
(1.10745 0.175301 2.40806e-21)
(1.10649 0.164293 -2.37275e-21)
(0.883667 0.30218 0)
(0.887384 0.307633 0)
(0.891164 0.313009 -7.56775e-22)
(0.895111 0.318305 0)
(0.899357 0.32351 0)
(0.904021 0.328668 7.43741e-23)
(0.909166 0.33364 -7.62711e-23)
(0.914841 0.338447 -7.99032e-23)
(0.921132 0.34302 1.15034e-22)
(0.927987 0.347164 5.55128e-22)
(0.935465 0.3509 8.92178e-22)
(0.943586 0.35413 9.3306e-22)
(0.95219 0.356624 -8.0274e-22)
(0.961232 0.358356 1.85893e-22)
(0.970764 0.359318 -1.52391e-21)
(0.980568 0.35935 4.05683e-21)
(0.990429 0.358405 -2.16373e-21)
(1.00035 0.35651 2.54492e-21)
(1.0103 0.353656 0)
(1.02004 0.349843 6.79568e-21)
(1.02939 0.345137 -6.91279e-21)
(1.03834 0.339601 -3.74354e-21)
(1.0469 0.333256 -8.3003e-21)
(1.055 0.326157 -2.39031e-22)
(1.06245 0.318454 -2.02242e-22)
(1.06923 0.310258 9.73324e-21)
(1.07544 0.301538 2.59363e-21)
(1.08107 0.29234 7.72509e-21)
(1.0861 0.282717 -7.91793e-21)
(1.09046 0.272845 2.81434e-21)
(1.09418 0.262791 5.58656e-21)
(1.09734 0.25247 -5.57315e-21)
(1.09995 0.241912 0)
(1.10201 0.231149 -2.93962e-21)
(1.10353 0.220294 0)
(1.10452 0.209415 8.13623e-23)
(1.10503 0.198462 -2.85971e-21)
(1.10507 0.187443 0)
(1.10466 0.176416 2.7637e-21)
(1.1038 0.165449 7.57195e-23)
(0.88945 0.300635 4.53913e-22)
(0.893096 0.305668 -8.87239e-23)
(0.896807 0.310613 1.21732e-22)
(0.900673 0.315471 -2.36003e-24)
(0.904811 0.320228 8.25418e-22)
(0.909324 0.324923 -6.05011e-23)
(0.914264 0.329437 9.97132e-24)
(0.919675 0.333787 3.41232e-23)
(0.925631 0.337916 1.12668e-22)
(0.932086 0.341657 -4.33389e-22)
(0.939095 0.345028 -5.22724e-22)
(0.946677 0.347946 0)
(0.954699 0.350212 1.95356e-21)
(0.963123 0.3518 8.11551e-23)
(0.972 0.352701 -2.79293e-21)
(0.981145 0.352769 -1.81747e-21)
(0.990373 0.351954 1.97718e-21)
(0.999688 0.350275 2.2889e-21)
(1.00905 0.347715 -2.46677e-21)
(1.01828 0.344263 0)
(1.02718 0.339968 3.26064e-21)
(1.03575 0.334879 3.7283e-21)
(1.04398 0.329012 4.45706e-22)
(1.05182 0.322408 -1.15096e-20)
(1.05908 0.315197 -3.97611e-21)
(1.06573 0.307475 0)
(1.07186 0.299219 4.51402e-21)
(1.07745 0.290468 -9.2614e-21)
(1.08248 0.28127 4.86051e-21)
(1.08687 0.271787 -1.80081e-22)
(1.09065 0.262083 4.69359e-21)
(1.09388 0.252084 9.80549e-21)
(1.09658 0.241818 -2.45718e-21)
(1.09873 0.231318 0)
(1.10035 0.220691 -2.48588e-21)
(1.10144 0.210002 2.62697e-21)
(1.10205 0.199208 0)
(1.10219 0.188315 2.47175e-21)
(1.10187 0.17738 -3.21802e-21)
(1.1011 0.166464 1.89735e-21)
(0.894718 0.299147 0)
(0.898293 0.303814 0)
(0.901938 0.308386 -2.47837e-22)
(0.905729 0.312863 -2.06218e-24)
(0.909768 0.317234 -1.14796e-21)
(0.914148 0.32153 0)
(0.918911 0.325647 -1.25718e-22)
(0.924096 0.329601 1.38504e-23)
(0.929768 0.333343 0)
(0.935885 0.336729 0)
(0.942496 0.339774 0)
(0.949621 0.342408 -7.69121e-22)
(0.957144 0.344455 7.45867e-22)
(0.965036 0.345893 -1.29617e-22)
(0.973344 0.346711 -1.40374e-22)
(0.98191 0.346779 -6.68534e-23)
(0.990574 0.346045 -1.09573e-22)
(0.99934 0.344522 -2.12511e-21)
(1.00818 0.342187 0)
(1.01691 0.339024 0)
(1.02538 0.335067 0)
(1.03357 0.330355 9.3419e-21)
(1.04149 0.324897 -6.07172e-21)
(1.04905 0.318726 7.06138e-21)
(1.0561 0.31195 2.04473e-22)
(1.06259 0.304656 -3.8681e-21)
(1.06861 0.296824 3.87724e-21)
(1.07412 0.288486 -4.14975e-21)
(1.07911 0.279688 8.22602e-21)
(1.0835 0.270575 -2.4635e-22)
(1.0873 0.261209 -4.51832e-21)
(1.09058 0.251524 -2.49263e-22)
(1.09332 0.241549 -2.06941e-21)
(1.09555 0.231314 4.55815e-21)
(1.09723 0.220919 9.66901e-23)
(1.0984 0.210428 -2.27267e-21)
(1.09908 0.199802 2.27959e-21)
(1.09929 0.189045 -6.79422e-21)
(1.09905 0.178212 1.62473e-21)
(1.09834 0.167356 5.48975e-22)
(0.899539 0.297696 -1.2815e-22)
(0.903044 0.302041 2.29743e-22)
(0.906621 0.306287 9.52823e-22)
(0.910339 0.310433 4.00733e-22)
(0.914287 0.314467 4.0936e-22)
(0.918547 0.318417 -6.80084e-23)
(0.923154 0.322188 2.3839e-23)
(0.928142 0.325798 -5.65144e-23)
(0.933568 0.329201 2.59054e-22)
(0.939393 0.332273 -5.15602e-22)
(0.945662 0.335027 4.43537e-22)
(0.952393 0.337402 9.64143e-23)
(0.959484 0.339244 -1.54642e-21)
(0.966914 0.340533 -1.99401e-21)
(0.974724 0.341258 1.22849e-21)
(0.982779 0.3413 2.82818e-21)
(0.990939 0.340613 1.76868e-21)
(0.999208 0.339199 -5.27538e-21)
(1.00756 0.337038 0)
(1.01584 0.334106 0)
(1.02391 0.330428 2.42307e-21)
(1.03173 0.326033 5.55728e-21)
(1.03932 0.320926 -5.75108e-21)
(1.04661 0.315131 -3.25752e-22)
(1.05343 0.308741 -2.98984e-22)
(1.05975 0.301832 -2.75358e-22)
(1.06563 0.294385 3.33938e-21)
(1.07104 0.28643 3.59891e-21)
(1.07596 0.278005 -7.68459e-21)
(1.08032 0.269242 3.59998e-21)
(1.08411 0.260202 3.96935e-21)
(1.08739 0.250824 -1.55165e-22)
(1.09016 0.241136 1.49196e-22)
(1.09242 0.231165 4.09107e-21)
(1.09415 0.221006 -2.01799e-21)
(1.09537 0.210719 -4.09163e-21)
(1.09611 0.200268 2.03514e-21)
(1.09638 0.189657 2.0873e-21)
(1.09619 0.178933 -1.09781e-22)
(1.09553 0.168148 0)
(0.903969 0.296265 7.87557e-22)
(0.907403 0.300326 -1.43948e-22)
(0.910913 0.304285 -4.73357e-22)
(0.914558 0.308141 -3.47438e-22)
(0.918419 0.311879 -4.07005e-23)
(0.922567 0.315526 6.64251e-23)
(0.927033 0.318996 1.0055e-22)
(0.931845 0.322303 1.96027e-23)
(0.937054 0.325409 0)
(0.942623 0.328202 2.81975e-22)
(0.948594 0.330697 -4.26239e-22)
(0.954981 0.332838 1.23462e-21)
(0.961695 0.33449 -2.20674e-21)
(0.968718 0.335635 8.71669e-22)
(0.97609 0.336262 2.34056e-21)
(0.983691 0.336265 -3.69571e-21)
(0.991398 0.335597 0)
(0.999217 0.334261 1.70886e-21)
(1.00712 0.332232 0)
(1.01499 0.329485 1.99184e-21)
(1.02266 0.326037 -6.94788e-21)
(1.03014 0.32191 4.66765e-21)
(1.03741 0.317104 -5.19308e-21)
(1.04442 0.311638 0)
(1.051 0.30559 -2.83657e-21)
(1.05713 0.299027 0)
(1.06286 0.291931 -6.46077e-21)
(1.06815 0.284328 6.47015e-21)
(1.07298 0.276251 0)
(1.07728 0.26782 -7.10211e-21)
(1.08103 0.259091 -7.15171e-23)
(1.0843 0.250011 3.48862e-21)
(1.08707 0.240604 -3.61483e-21)
(1.08934 0.230897 0)
(1.09109 0.220975 0)
(1.09234 0.210896 0)
(1.09312 0.200627 5.421e-21)
(1.09342 0.190169 -1.82201e-21)
(1.09326 0.179565 -9.90485e-23)
(1.09263 0.16886 0)
(0.908055 0.294842 -1.65059e-22)
(0.911417 0.298651 -1.29868e-22)
(0.914858 0.302356 3.90811e-22)
(0.918431 0.305954 -3.14965e-22)
(0.922206 0.309433 -5.02334e-23)
(0.92625 0.312813 1.9942e-22)
(0.930585 0.316017 -6.55535e-23)
(0.935238 0.319058 -9.90065e-23)
(0.940252 0.321901 2.4456e-22)
(0.945593 0.324448 2.67031e-22)
(0.951298 0.326711 0)
(0.957381 0.328641 6.01466e-22)
(0.963762 0.330119 8.43783e-23)
(0.970424 0.331128 -9.58351e-22)
(0.977405 0.331657 1.83157e-21)
(0.9846 0.331611 0)
(0.9919 0.330946 0)
(0.99931 0.329662 6.08564e-21)
(1.00681 0.327735 3.14215e-22)
(1.01428 0.325137 -1.8469e-21)
(1.02159 0.32188 3.93303e-21)
(1.02874 0.31798 -4.24303e-21)
(1.0357 0.313434 -2.14052e-21)
(1.04243 0.308256 -5.09082e-21)
(1.04878 0.302511 7.84259e-21)
(1.05471 0.296259 5.61029e-21)
(1.06026 0.289483 -1.42458e-20)
(1.06542 0.282204 8.73465e-21)
(1.07014 0.274452 6.19562e-21)
(1.07435 0.266334 -3.14649e-21)
(1.07805 0.257903 0)
(1.08128 0.249111 3.17012e-21)
(1.08402 0.239979 0)
(1.08629 0.230532 0)
(1.08804 0.220849 3.34808e-21)
(1.0893 0.210982 -6.56987e-21)
(1.09009 0.2009 -6.65207e-21)
(1.09041 0.190603 -3.21015e-21)
(1.09027 0.180127 -2.85289e-21)
(1.08965 0.169514 -3.89364e-22)
(0.911837 0.293418 0)
(0.915125 0.297003 0)
(0.918496 0.30048 -7.32692e-22)
(0.921995 0.30385 2.45303e-23)
(0.925687 0.307098 2.06925e-22)
(0.92963 0.310241 -1.44618e-22)
(0.933842 0.313211 4.21227e-23)
(0.938347 0.316016 0)
(0.943184 0.318627 -1.45739e-22)
(0.948319 0.320955 -7.67104e-22)
(0.953785 0.323011 7.31655e-22)
(0.959596 0.324751 9.73872e-22)
(0.965677 0.32607 0)
(0.972016 0.326951 -1.49871e-21)
(0.978648 0.327385 -3.72834e-21)
(0.985477 0.327286 4.05706e-21)
(0.992407 0.326614 1.99131e-22)
(0.999443 0.325364 -8.27687e-21)
(1.00657 0.323515 3.11719e-21)
(1.01368 0.321038 -1.0166e-20)
(1.02065 0.31794 -2.46988e-22)
(1.02747 0.314234 2.2224e-22)
(1.03413 0.309913 2.38724e-22)
(1.04059 0.304988 4.61276e-21)
(1.0467 0.299513 2.23866e-22)
(1.05242 0.293542 -4.64586e-21)
(1.0578 0.287058 -2.64838e-21)
(1.0628 0.280078 -2.94931e-21)
(1.0674 0.272629 5.46053e-21)
(1.07151 0.264806 -2.93617e-21)
(1.07514 0.256661 0)
(1.07831 0.248147 -6.19967e-23)
(1.08101 0.239284 -8.88996e-21)
(1.08324 0.230094 -3.52219e-23)
(1.08498 0.220648 3.01099e-21)
(1.08623 0.210997 3.11243e-21)
(1.08702 0.201107 3.09816e-21)
(1.08734 0.190978 3.07199e-21)
(1.08721 0.18064 4.38258e-21)
(1.08658 0.17013 0)
(0.915349 0.291986 2.1307e-23)
(0.918561 0.295368 -3.84504e-22)
(0.92186 0.298642 3.43589e-22)
(0.925285 0.301808 -2.89195e-22)
(0.928893 0.30485 -1.44633e-22)
(0.932737 0.307784 0)
(0.936832 0.310544 -4.09703e-23)
(0.941199 0.31314 0)
(0.945871 0.315545 -2.88694e-22)
(0.950817 0.317677 4.93456e-22)
(0.956066 0.319548 -7.0913e-22)
(0.961629 0.321118 -9.42953e-22)
(0.96744 0.322292 -1.1456e-21)
(0.973487 0.323056 -8.60576e-23)
(0.979801 0.3234 3.26276e-21)
(0.986298 0.323246 7.38425e-23)
(0.992891 0.322558 1.87395e-22)
(0.999584 0.321331 0)
(1.00636 0.319542 5.75578e-21)
(1.01313 0.317165 -2.93139e-21)
(1.01978 0.314201 3.45623e-21)
(1.0263 0.310662 -3.48581e-21)
(1.03268 0.306538 1.14545e-20)
(1.03886 0.301835 0)
(1.04474 0.296602 0)
(1.05025 0.290886 2.51375e-22)
(1.05545 0.284669 -4.86413e-21)
(1.06029 0.277966 0)
(1.06475 0.270799 -1.99526e-22)
(1.06875 0.263257 5.12424e-21)
(1.07228 0.255383 -1.87983e-22)
(1.07538 0.247138 5.32666e-21)
(1.07802 0.238538 2.80125e-21)
(1.08021 0.229601 -5.42584e-21)
(1.08192 0.220393 -2.4419e-23)
(1.08314 0.210959 2.74169e-21)
(1.08391 0.201267 0)
(1.08422 0.191312 1.28351e-21)
(1.08407 0.181123 -1.41477e-21)
(1.08343 0.170729 -2.4541e-21)
(0.918618 0.290541 4.20674e-23)
(0.921754 0.29374 6.54739e-22)
(0.924978 0.296831 -8.26555e-23)
(0.928327 0.299813 4.44175e-22)
(0.931852 0.302671 1.4769e-22)
(0.935599 0.305416 6.81108e-23)
(0.939581 0.30799 -4.38295e-23)
(0.943816 0.3104 0)
(0.948334 0.31262 5.60922e-22)
(0.953103 0.314579 0)
(0.958153 0.316284 0)
(0.963489 0.317701 0)
(0.969053 0.318744 2.17492e-21)
(0.974832 0.319399 0)
(0.980857 0.319659 1.48403e-22)
(0.98705 0.319452 -5.33637e-21)
(0.993332 0.318745 3.91846e-21)
(0.999709 0.317532 2.23388e-21)
(1.00617 0.315791 0)
(1.01262 0.313496 -2.72724e-21)
(1.01897 0.310647 -3.15765e-21)
(1.02519 0.307252 -2.62032e-23)
(1.0313 0.303301 -3.81124e-21)
(1.03722 0.298798 3.43493e-21)
(1.04286 0.293783 3.85684e-21)
(1.04817 0.288297 2.27192e-22)