/*--------------------------------*- C++ -*----------------------------------*\
| =========                 |                                                 |
| \\      /  F ield         | OpenFOAM: The Open Source CFD Toolbox           |
|  \\    /   O peration     | Version:  3.0.1                                 |
|   \\  /    A nd           | Web:      www.OpenFOAM.org                      |
|    \\/     M anipulation  |                                                 |
\*---------------------------------------------------------------------------*/
FoamFile
{
    version     2.0;
    format      ascii;
    class       volScalarField;
    location    "500";
    object      nut;
}
// * * * * * * * * * * * * * * * * * * * * * * * * * * * * * * * * * * * * * //

dimensions      [0 2 -1 0 0 0 0];

internalField   nonuniform List<scalar> 
58000
(
0.000789213
0.000737843
0.000663188
0.000593772
0.000538955
0.000496234
0.000466927
0.000443226
0.000427056
0.000417011
0.000409689
0.000405307
0.000404072
0.0004026
0.000401111
0.000400417
0.00040063
0.000401422
0.000402562
0.000404096
0.000406068
0.000408262
0.000410666
0.00041306
0.000415652
0.000418111
0.000420591
0.00042305
0.000425338
0.000427591
0.000429559
0.000431334
0.000432854
0.00043405
0.000434996
0.000435133
0.000434265
0.00043301
0.000431767
0.000432243
0.00292468
0.00260564
0.00225077
0.00192887
0.00167033
0.0014655
0.001309
0.00118413
0.00108805
0.00101651
0.000960011
0.00091715
0.000885252
0.000859431
0.000835923
0.000817513
0.000803814
0.000791926
0.00078074
0.000771601
0.000765025
0.000759393
0.000754206
0.000749174
0.000745888
0.000742937
0.000740027
0.000737104
0.000734011
0.00073166
0.000729476
0.000725959
0.000721194
0.000715463
0.0007092
0.000701696
0.000693924
0.000686969
0.000681369
0.000679846
0.0051464
0.00476383
0.00431469
0.00384306
0.00341174
0.0030373
0.00273878
0.00249322
0.00229537
0.00214183
0.00201769
0.00191599
0.00183977
0.00177913
0.00172744
0.00168754
0.00165775
0.00163308
0.00161126
0.00159396
0.00158143
0.00157071
0.00156065
0.00155066
0.00154329
0.00153554
0.0015266
0.00151668
0.00150577
0.00149631
0.00148678
0.00147672
0.00146614
0.00145471
0.00144228
0.00142735
0.00141039
0.00139312
0.00137715
0.00136886
0.00736081
0.00693789
0.00642203
0.00587723
0.00535263
0.00486154
0.00444445
0.00408578
0.00378701
0.00354904
0.00334909
0.00318243
0.00305357
0.00294858
0.00285776
0.00278572
0.00272995
0.0026832
0.00264205
0.00260869
0.0025831
0.00256089
0.0025387
0.00251605
0.00249798
0.00248146
0.00246472
0.00244748
0.00242919
0.00241243
0.00239517
0.0023766
0.0023568
0.00233585
0.00231464
0.00229062
0.00226404
0.00223678
0.00221099
0.00219347
0.00955149
0.00910764
0.0085577
0.007968
0.00738055
0.00681907
0.00631989
0.00587132
0.0054822
0.00516182
0.00488569
0.00465025
0.00446366
0.00430889
0.00417342
0.00406386
0.00397716
0.00390326
0.00383719
0.00378197
0.00373699
0.00369694
0.00365928
0.00362271
0.00359348
0.00356593
0.00353769
0.00350862
0.00347852
0.0034522
0.00342533
0.00339661
0.00336607
0.00333386
0.00330176
0.00326666
0.00322849
0.00318932
0.00315181
0.00312276
0.0117146
0.0112583
0.0106903
0.010072
0.0094494
0.00883898
0.00828239
0.00777043
0.00731067
0.00692021
0.00657555
0.00627466
0.00603024
0.00582395
0.00564114
0.00549002
0.0053677
0.00526233
0.00516632
0.00508411
0.00501691
0.00495727
0.00490213
0.00484791
0.00480183
0.00475973
0.0047181
0.0046765
0.00463331
0.00459354
0.00455447
0.00451441
0.00447195
0.00442719
0.00438252
0.00433468
0.00428336
0.00423073
0.00417985
0.00413731
0.0138534
0.0133895
0.0128124
0.0121788
0.0115353
0.0108927
0.0102966
0.00973474
0.00922167
0.00877598
0.00837417
0.00801422
0.0077153
0.00745886
0.00722965
0.00703569
0.00687517
0.00673408
0.00660594
0.00649568
0.006405
0.00632284
0.00624512
0.00617084
0.00610803
0.00604989
0.00599237
0.00593471
0.0058769
0.00582307
0.00577022
0.0057166
0.00566019
0.00560113
0.0055422
0.00548008
0.0054142
0.00534676
0.00528109
0.00522348
0.0159714
0.0155026
0.0149213
0.0142799
0.0136245
0.0129622
0.0123379
0.0117422
0.0111883
0.0106953
0.0102441
0.00983562
0.00948907
0.00918611
0.00891009
0.00867402
0.00847635
0.00830089
0.00814035
0.00800091
0.00788256
0.007776
0.00767558
0.00758023
0.00749689
0.00742051
0.00734635
0.00727185
0.00719666
0.00712753
0.0070596
0.00699064
0.00691872
0.00684399
0.00676949
0.00669184
0.00661022
0.00652683
0.00644515
0.00637114
0.0180722
0.0176
0.0170169
0.016372
0.01571
0.0150366
0.0143939
0.0137745
0.0131881
0.012661
0.0121708
0.0117189
0.0113296
0.0109846
0.0106668
0.0103912
0.0101584
0.00994888
0.00975526
0.00958443
0.00943837
0.00930725
0.00918284
0.00906369
0.00895966
0.00886363
0.00876966
0.00867728
0.00858409
0.00849785
0.00841305
0.00832634
0.00823804
0.00814683
0.00805576
0.00796157
0.00786319
0.00776283
0.00766409
0.00757256
0.0201587
0.0196842
0.0191009
0.0184548
0.0177879
0.0171099
0.0164562
0.0158209
0.0152116
0.0146569
0.0141339
0.0136482
0.0132232
0.0128413
0.0124856
0.0121727
0.0119034
0.0116604
0.0114351
0.0112354
0.0110616
0.0109036
0.0107551
0.0106122
0.010485
0.0103686
0.0102546
0.0101425
0.0100299
0.00992506
0.00982236
0.00971776
0.00961181
0.00950308
0.00939438
0.00928261
0.00916651
0.00904828
0.00893154
0.00882157
0.0222333
0.0217572
0.0211749
0.0205299
0.019862
0.0191811
0.0185201
0.0178736
0.0172482
0.0166713
0.0161241
0.0156104
0.0151548
0.0147394
0.0143497
0.0140033
0.0137017
0.0134281
0.013172
0.0129417
0.0127401
0.0125566
0.0123821
0.0122157
0.0120657
0.0119268
0.0117922
0.0116586
0.011526
0.011401
0.0112802
0.0111574
0.0110333
0.0109071
0.0107796
0.0106492
0.0105146
0.0103777
0.0102423
0.0101131
0.0242981
0.0238208
0.0232402
0.0225974
0.0219306
0.0212489
0.0205832
0.0199275
0.0192921
0.0186996
0.018133
0.0175945
0.0171125
0.0166711
0.0162527
0.0158764
0.0155446
0.01524
0.0149542
0.0146964
0.014468
0.0142574
0.0140579
0.0138661
0.0136934
0.0135323
0.0133764
0.0132213
0.0130667
0.0129221
0.0127823
0.0126399
0.0124969
0.0123518
0.0122053
0.0120561
0.0119026
0.0117467
0.011592
0.0114431
0.0263547
0.0258764
0.0252977
0.0246579
0.0239934
0.0233128
0.0226451
0.0219843
0.021341
0.0207367
0.020155
0.0195975
0.0190937
0.0186285
0.0181844
0.0177813
0.0174223
0.0170903
0.0167765
0.0164901
0.0162361
0.0160001
0.0157746
0.0155587
0.0153614
0.0151772
0.0150001
0.0148241
0.0146482
0.0144833
0.0143238
0.0141614
0.0139986
0.0138338
0.013668
0.0134996
0.0133268
0.0131515
0.0129772
0.0128081
0.0284045
0.0279252
0.0273485
0.0267121
0.0260507
0.0253722
0.0247043
0.0240408
0.0233921
0.0227785
0.0221848
0.0216124
0.0210906
0.0206045
0.0201363
0.0197087
0.0193251
0.0189691
0.01863
0.0183176
0.0180368
0.0177768
0.0175272
0.0172875
0.0170664
0.0168587
0.0166584
0.0164616
0.0162648
0.0160794
0.0158997
0.0157172
0.0155335
0.0153495
0.0151642
0.0149765
0.0147842
0.0145892
0.0143948
0.0142052
0.0304491
0.029968
0.0293934
0.0287606
0.0281028
0.0274272
0.0267603
0.0260958
0.0254436
0.0248228
0.0242181
0.0236349
0.0230984
0.0225936
0.0221073
0.0216589
0.0212526
0.0208714
0.0205076
0.0201716
0.0198663
0.0195812
0.0193088
0.0190454
0.0188013
0.0185712
0.0183478
0.0181302
0.0179125
0.0177054
0.0175062
0.017304
0.0171004
0.0168965
0.0166916
0.0164841
0.0162721
0.016057
0.0158424
0.0156319
0.0324854
0.0320042
0.0314323
0.0308037
0.0301499
0.0294779
0.0288129
0.0281487
0.0274946
0.026869
0.0262567
0.0256637
0.0251146
0.0245953
0.0240928
0.0236263
0.0231998
0.0227965
0.0224088
0.0220477
0.0217181
0.0214107
0.0211152
0.0208265
0.0205604
0.0203105
0.0200658
0.0198261
0.0195885
0.0193609
0.0191404
0.0189191
0.0186958
0.0184722
0.0182473
0.01802
0.0177879
0.0175526
0.0173174
0.0170858
0.0345158
0.0340348
0.033466
0.0328418
0.0321925
0.0315245
0.0308621
0.0301991
0.0295444
0.0289155
0.0282977
0.0276967
0.0271356
0.0266051
0.0260891
0.0256067
0.0251621
0.0247386
0.0243275
0.0239449
0.0235926
0.0232613
0.0229432
0.0226336
0.022346
0.0220757
0.0218101
0.021549
0.0212913
0.0210432
0.0208022
0.020561
0.0203178
0.0200741
0.0198291
0.0195817
0.0193294
0.0190737
0.0188178
0.018565
0.036541
0.0360603
0.0354948
0.0348754
0.0342309
0.0335673
0.0329078
0.0322467
0.0315923
0.0309615
0.0303398
0.0297329
0.0291629
0.0286219
0.0280938
0.027597
0.0271361
0.0266943
0.0262628
0.0258581
0.025486
0.0251332
0.0247943
0.0244632
0.0241543
0.0238636
0.0235773
0.0232955
0.0230177
0.0227494
0.022488
0.0222269
0.0219636
0.0216998
0.0214346
0.021167
0.0208945
0.0206183
0.0203415
0.0200674
0.0385612
0.038081
0.0375191
0.0369048
0.0362656
0.0356063
0.0349501
0.0342915
0.0336382
0.0330064
0.0323821
0.0317707
0.0311936
0.0306435
0.0301047
0.0295949
0.0291188
0.0286608
0.0282111
0.0277869
0.027396
0.027022
0.0266609
0.0263108
0.0259818
0.0256709
0.0253645
0.0250625
0.0247649
0.0244766
0.0241952
0.0239142
0.023631
0.023347
0.0230616
0.0227739
0.0224811
0.0221845
0.021887
0.0215915
0.0405764
0.0400969
0.0395386
0.0389298
0.0382973
0.0376418
0.036989
0.0363331
0.0356815
0.0350497
0.0344238
0.0338091
0.0332263
0.0326685
0.0321203
0.0315987
0.0311075
0.0306353
0.0301696
0.0297273
0.0293163
0.0289244
0.0285439
0.0281748
0.0278258
0.027494
0.0271688
0.0268474
0.0265305
0.0262225
0.0259213
0.0256208
0.0253177
0.0250134
0.024708
0.0244004
0.0240876
0.0237707
0.0234524
0.0231357
0.0425866
0.042108
0.0415533
0.0409496
0.0403226
0.0396724
0.0390238
0.0383714
0.0377221
0.037091
0.0364645
0.0358475
0.0352601
0.0346955
0.0341392
0.0336077
0.0331043
0.032617
0.0321369
0.0316781
0.0312493
0.0308394
0.0304403
0.0300526
0.0296845
0.0293331
0.028989
0.0286483
0.028312
0.0279848
0.0276644
0.0273446
0.0270217
0.0266966
0.0263721
0.0260451
0.0257124
0.0253753
0.0250364
0.0246985
0.0445915
0.0441141
0.0435633
0.0429648
0.0423431
0.0416984
0.0410545
0.040406
0.0397596
0.0391299
0.0385039
0.0378854
0.0372944
0.0367238
0.0361602
0.0356201
0.0351076
0.0346078
0.034112
0.0336372
0.0331926
0.0327646
0.0323473
0.0319414
0.0315552
0.0311853
0.0308228
0.0304631
0.0301067
0.0297615
0.0294226
0.0290841
0.028742
0.0283974
0.0280535
0.0277069
0.0273544
0.0269972
0.0266377
0.0262787
0.0465909
0.0461151
0.0455684
0.0449754
0.0443589
0.0437198
0.0430809
0.042437
0.0417936
0.0411658
0.0405421
0.0399219
0.0393291
0.0387522
0.0381817
0.0376334
0.0371113
0.0366002
0.0360912
0.0356014
0.0351397
0.0346967
0.0342626
0.0338384
0.0334357
0.0330486
0.0326685
0.0322906
0.0319155
0.0315521
0.0311947
0.0308377
0.0304771
0.0301136
0.0297505
0.0293843
0.0290121
0.0286348
0.028255
0.027875
0.0485843
0.0481103
0.0475682
0.046982
0.0463697
0.0457361
0.0451026
0.0444646
0.0438235
0.0431974
0.0425749
0.0419546
0.0413598
0.0407788
0.0402027
0.0396469
0.0391156
0.0385939
0.038073
0.0375699
0.0370934
0.0366353
0.0361854
0.0357446
0.0353256
0.0349215
0.0345244
0.0341289
0.033736
0.0333546
0.0329792
0.0326041
0.0322253
0.0318444
0.0314616
0.0310758
0.030684
0.0302868
0.0298868
0.0294861
0.0505711
0.0500992
0.0495617
0.0489809
0.0483743
0.0477466
0.0471185
0.0464855
0.0458482
0.0452245
0.0446034
0.0439836
0.0433874
0.0428033
0.0422225
0.04166
0.0411199
0.0405882
0.0400565
0.039541
0.039051
0.0385788
0.038114
0.0376577
0.0372228
0.0368025
0.0363888
0.0359764
0.0355661
0.0351675
0.0347744
0.0343815
0.0339848
0.0335858
0.0331843
0.0327796
0.0323685
0.0319519
0.031532
0.0311109
0.0525505
0.0520811
0.0515496
0.050973
0.0503722
0.0497509
0.0491288
0.0485005
0.0478675
0.0472468
0.0466277
0.046009
0.045412
0.0448259
0.0442408
0.043672
0.0431236
0.0425821
0.0420402
0.0415136
0.041011
0.0405255
0.0400467
0.0395758
0.0391258
0.0386897
0.0382601
0.0378314
0.0374045
0.036989
0.0365788
0.0361685
0.0357542
0.0353374
0.0349177
0.0344944
0.0340646
0.033629
0.0331895
0.0327484
0.0545217
0.0540551
0.053528
0.0529572
0.0523627
0.0517486
0.0511338
0.0505098
0.0498813
0.0492642
0.0486474
0.0480305
0.0474332
0.0468468
0.0462576
0.0456825
0.0451259
0.0445738
0.0440232
0.0434863
0.042972
0.042474
0.041982
0.0414973
0.0410329
0.0405818
0.0401367
0.0396924
0.0392496
0.0388179
0.0383911
0.037964
0.0375325
0.0370981
0.0366606
0.0362193
0.0357712
0.0353169
0.0348583
0.0343975
0.0564838
0.0560214
0.0554978
0.0549329
0.0543453
0.0537385
0.05313
0.0525116
0.0518886
0.0512768
0.050662
0.0500481
0.0494497
0.0488619
0.0482715
0.0476907
0.0471265
0.0465652
0.0460052
0.0454582
0.0449328
0.044423
0.0439186
0.0434209
0.0429428
0.0424772
0.0420171
0.0415581
0.0411003
0.040653
0.0402101
0.0397666
0.0393184
0.038867
0.0384122
0.0379533
0.0374873
0.0370147
0.0365375
0.0360575
0.0584355
0.0579762
0.0574578
0.0568996
0.0563195
0.0557213
0.055118
0.0545056
0.0538884
0.0532808
0.0526691
0.0520577
0.0514599
0.0508708
0.0502783
0.0496948
0.0491243
0.0485535
0.0479844
0.0474278
0.046892
0.0463712
0.0458552
0.0453453
0.0448543
0.0443746
0.0438992
0.0434274
0.0429556
0.0424932
0.0420347
0.0415753
0.0411109
0.040643
0.0401713
0.0396953
0.0392119
0.0387216
0.0382262
0.0377274
0.0603762
0.0599202
0.0594077
0.0588567
0.0582843
0.0576934
0.0570968
0.0564911
0.0558813
0.055277
0.0546689
0.0540599
0.0534646
0.0528736
0.0522785
0.0516903
0.0511132
0.0505354
0.0499586
0.0493936
0.0488482
0.0483173
0.0477905
0.0472693
0.0467661
0.0462736
0.0457846
0.0452995
0.044814
0.0443372
0.0438638
0.043389
0.0429089
0.042425
0.041937
0.0414444
0.0409442
0.0404367
0.0399236
0.0394066
0.0623056
0.0618532
0.0613469
0.060804
0.0602402
0.0596556
0.0590658
0.0584672
0.0578636
0.0572643
0.0566615
0.056054
0.0554597
0.0548695
0.0542723
0.0536783
0.0530932
0.0525099
0.0519268
0.0513542
0.0508003
0.0502601
0.0497234
0.0491917
0.0486773
0.0481727
0.0476712
0.0471734
0.0466746
0.0461841
0.0456962
0.0452065
0.0447113
0.044212
0.0437084
0.0431999
0.0426833
0.0421591
0.041629
0.0410943
0.0642227
0.0637742
0.0632746
0.0627407
0.0621836
0.0616065
0.0610244
0.0604345
0.0598362
0.059242
0.0586433
0.0580389
0.0574454
0.0568542
0.0562549
0.0556578
0.0550662
0.054477
0.053888
0.0533088
0.0527472
0.0521985
0.0516528
0.0511115
0.0505867
0.050071
0.0495578
0.0490478
0.0485366
0.0480328
0.047531
0.0470268
0.0465167
0.046003
0.0454846
0.0449608
0.0444286
0.0438883
0.0433415
0.0427897
0.0661266
0.0656825
0.0651897
0.0646634
0.0641143
0.0635456
0.0629716
0.0623891
0.061798
0.0612105
0.0606154
0.0600152
0.0594227
0.0588291
0.0582266
0.0576241
0.057029
0.0564353
0.0558412
0.0552562
0.0546878
0.0541315
0.0535777
0.0530277
0.0524934
0.0519672
0.0514431
0.0509219
0.0503988
0.0498825
0.0493673
0.0488483
0.048325
0.0477976
0.047265
0.0467265
0.0461792
0.0456234
0.0450607
0.0444924
0.0680165
0.0675771
0.0670924
0.0665728
0.066032
0.0654725
0.0649078
0.0643317
0.0637486
0.0631657
0.0625762
0.0619782
0.0613867
0.0607933
0.0601879
0.0595805
0.0589814
0.0583837
0.0577855
0.0571956
0.0566212
0.0560583
0.0554972
0.0549394
0.0543963
0.0538606
0.0533264
0.0527946
0.0522604
0.0517323
0.0512046
0.0506725
0.0501361
0.0495953
0.049049
0.0484963
0.0479345
0.0473638
0.0467857
0.0462017
0.0698913
0.0694565
0.0689788
0.0684676
0.0679361
0.0673868
0.0668293
0.0662607
0.0656844
0.0651072
0.0645223
0.0639283
0.0633375
0.0627425
0.0621325
0.0615236
0.060922
0.0603214
0.0597199
0.059126
0.0585466
0.0579779
0.0574105
0.0568456
0.0562945
0.0557501
0.0552066
0.0546649
0.0541204
0.0535812
0.0530418
0.0524976
0.0519487
0.0513952
0.0508356
0.0502694
0.0496937
0.0491087
0.0485159
0.0479168
0.0717504
0.07132
0.0708494
0.0703473
0.069826
0.0692848
0.068736
0.0681766
0.0676064
0.0670359
0.0664548
0.0658618
0.0652706
0.0646728
0.0640627
0.063453
0.0628499
0.0622474
0.0616436
0.0610466
0.0604632
0.0598895
0.0593166
0.0587455
0.0581873
0.057635
0.0570828
0.056532
0.0559778
0.0554283
0.054878
0.0543225
0.0537618
0.0531962
0.0526242
0.052045
0.051456
0.0508573
0.0502506
0.0496373
0.0735931
0.0731671
0.0727033
0.0722111
0.0716979
0.0711662
0.0706275
0.0700756
0.0695136
0.0689481
0.0683693
0.0677795
0.0671881
0.0665883
0.065978
0.0653683
0.0647646
0.0641611
0.0635559
0.0629568
0.0623701
0.0617924
0.0612148
0.0606384
0.0600738
0.0595143
0.0589543
0.058395
0.0578317
0.0572726
0.0567123
0.0561462
0.0555746
0.0549977
0.0544138
0.0538223
0.0532206
0.0526091
0.0519891
0.0513625
0.0754185
0.0749966
0.0745392
0.0740553
0.0735517
0.0730308
0.0725004
0.0719577
0.0714022
0.0708402
0.0702657
0.0696774
0.0690843
0.0684862
0.0678774
0.0672687
0.0666654
0.0660618
0.0654561
0.0648557
0.0642668
0.0636859
0.0631044
0.0625234
0.0619532
0.0613872
0.0608201
0.0602529
0.0596807
0.0591132
0.0585437
0.057968
0.0573862
0.0567986
0.0562035
0.0556004
0.0549868
0.054363
0.0537307
0.0530917
0.077226
0.0768082
0.0763566
0.0758805
0.0753872
0.0748751
0.0743547
0.0738197
0.0732693
0.0727123
0.0721408
0.0715524
0.0709622
0.0703666
0.0697603
0.0691537
0.0685516
0.0679488
0.0673435
0.0667428
0.0661526
0.0655693
0.0649846
0.0643997
0.0638246
0.0632528
0.0626794
0.0621052
0.0615253
0.0609498
0.0603717
0.059787
0.0591958
0.0585983
0.0579927
0.0573786
0.0567537
0.0561184
0.0554746
0.0548245
0.079015
0.0786011
0.078155
0.0776857
0.0772007
0.0766989
0.0761873
0.075659
0.0751159
0.0745615
0.0739918
0.0734081
0.0728216
0.0722295
0.0716266
0.0710227
0.0704227
0.0698215
0.0692174
0.0686175
0.0680272
0.067442
0.0668546
0.0662664
0.0656872
0.0651104
0.0645313
0.0639509
0.0633642
0.0627812
0.0621953
0.0616024
0.0610029
0.060396
0.0597804
0.0591559
0.0585204
0.0578744
0.05722
0.0565601
0.0807848
0.0803748
0.0799339
0.0794709
0.078993
0.0784991
0.0779957
0.0774765
0.0769404
0.0763894
0.0758237
0.0752446
0.0746625
0.0740746
0.0734758
0.0728755
0.0722782
0.0716792
0.0710771
0.0704788
0.0698905
0.0693031
0.0687135
0.0681228
0.0675401
0.066959
0.0663749
0.0657889
0.0651962
0.0646065
0.0640134
0.0634132
0.0628071
0.0621907
0.0615656
0.0609313
0.0602859
0.0596301
0.0589662
0.0582981
0.0825346
0.0821287
0.081693
0.081236
0.0807645
0.0802777
0.0797813
0.0792696
0.0787405
0.0781955
0.0776352
0.0770617
0.0764847
0.0759016
0.0753075
0.0747113
0.0741175
0.0735215
0.0729219
0.0723256
0.0717383
0.0711507
0.0705601
0.0699677
0.0693823
0.0687977
0.0682094
0.0676184
0.0670202
0.0664245
0.0658249
0.0652179
0.0646047
0.0639804
0.0633468
0.0627037
0.0620493
0.0613846
0.0607125
0.0600376
0.0842636
0.083862
0.0834316
0.0829806
0.0825154
0.0820353
0.0815456
0.0810408
0.0805186
0.0799802
0.0794263
0.078859
0.0782878
0.07771
0.0771212
0.0765298
0.07594
0.0753475
0.0747512
0.0741573
0.0735715
0.0729844
0.0723937
0.0718006
0.0712132
0.0706256
0.0700336
0.0694382
0.0688353
0.0682342
0.0676287
0.0670155
0.0663958
0.0657644
0.0651232
0.0644721
0.0638097
0.063137
0.0624579
0.0617783
0.0859712
0.0855739
0.085149
0.0847041
0.0842453
0.0837718
0.0832887
0.0827907
0.0822755
0.0817439
0.0811969
0.0806364
0.0800714
0.0794995
0.0789164
0.0783303
0.0777451
0.0771568
0.0765643
0.0759735
0.0753896
0.0748036
0.0742136
0.0736208
0.0730319
0.0724418
0.0718466
0.0712471
0.0706402
0.0700345
0.069424
0.0688054
0.0681797
0.067542
0.066894
0.0662358
0.0655661
0.0648866
0.0642017
0.0635194
0.0876564
0.0872638
0.0868445
0.0864059
0.0859535
0.0854867
0.0850103
0.0845192
0.084011
0.0834866
0.0829467
0.0823933
0.081835
0.0812693
0.0806925
0.0801121
0.079532
0.0789484
0.0783605
0.0777739
0.0771922
0.0766077
0.0760189
0.0754283
0.0748375
0.0742451
0.0736475
0.0730435
0.0724338
0.0718246
0.0712099
0.0705866
0.0699557
0.0693124
0.0686583
0.0679938
0.0673177
0.0666324
0.0659432
0.0652602
0.0893185
0.0889308
0.0885174
0.0880851
0.0876394
0.0871795
0.0867099
0.0862258
0.0857249
0.0852078
0.0846753
0.0841293
0.0835779
0.083019
0.0824487
0.0818746
0.0813
0.0807218
0.0801391
0.0795585
0.0789783
0.0783954
0.0778081
0.0772187
0.0766276
0.0760343
0.075436
0.0748285
0.0742159
0.0736037
0.0729855
0.0723584
0.0717231
0.0710748
0.0704154
0.0697452
0.0690636
0.0683735
0.0676814
0.0670001
0.0909567
0.0905742
0.0901668
0.0897411
0.0893022
0.0888494
0.0883869
0.0879099
0.0874165
0.0869069
0.0863821
0.0858438
0.0852997
0.0847477
0.0841845
0.0836169
0.0830485
0.0824759
0.0818987
0.0813229
0.0807461
0.0801656
0.0795804
0.0789924
0.0784017
0.0778077
0.077207
0.0765991
0.0759851
0.0753706
0.0747499
0.0741201
0.073481
0.0728284
0.0721642
0.0714891
0.0708029
0.0701089
0.0694154
0.0687382
0.0925704
0.0921932
0.091792
0.0913731
0.0909412
0.0904957
0.0900404
0.0895708
0.0890851
0.0885833
0.0880663
0.087536
0.0869995
0.0864549
0.085899
0.0853384
0.0847765
0.0842102
0.0836389
0.0830679
0.082495
0.0819177
0.0813351
0.080749
0.0801592
0.0795652
0.0789639
0.0783554
0.0777405
0.0771246
0.0765022
0.0758716
0.0752285
0.0745718
0.0739036
0.0732244
0.0725343
0.0718376
0.0711441
0.0704736
0.0941587
0.0937871
0.0933924
0.0929804
0.0925557
0.0921176
0.0916697
0.0912079
0.09073
0.0902362
0.0897274
0.0892052
0.0886766
0.0881397
0.0875915
0.0870384
0.0864835
0.085924
0.0853594
0.0847934
0.0842244
0.0836508
0.0830718
0.0824877
0.0818992
0.0813058
0.0807047
0.0800963
0.0794813
0.0788646
0.078241
0.0776088
0.0769633
0.0763038
0.0756324
0.07495
0.074257
0.0735586
0.0728667
0.0722052
0.0957211
0.0953553
0.0949672
0.0945624
0.094145
0.0937145
0.0932743
0.0928203
0.0923506
0.091865
0.0913646
0.0908509
0.0903303
0.0898014
0.0892612
0.0887159
0.0881686
0.0876167
0.0870604
0.0864984
0.0859334
0.0853639
0.0847902
0.0842076
0.0836205
0.0830282
0.0824282
0.0818208
0.0812064
0.0805897
0.0799653
0.0793319
0.0786848
0.0780233
0.0773497
0.0766648
0.0759699
0.0752709
0.0745818
0.0739318
0.097257
0.0968972
0.0965158
0.0961183
0.0957085
0.0952858
0.0948534
0.0944075
0.0939462
0.0934691
0.0929773
0.0924722
0.09196
0.0914393
0.0909075
0.0903703
0.089831
0.0892872
0.0887376
0.088181
0.0876206
0.0870554
0.0864858
0.0859064
0.0853217
0.0847313
0.0841333
0.0835278
0.0829154
0.0822991
0.0816742
0.0810402
0.0803921
0.0797296
0.0790545
0.0783681
0.077672
0.0769733
0.0762886
0.0756524
0.0987657
0.0984121
0.0980377
0.0976476
0.0972455
0.0968307
0.0964064
0.0959688
0.0955161
0.0950478
0.0945648
0.0940685
0.0935649
0.0930526
0.0925295
0.0920009
0.09147
0.0909358
0.0903917
0.0898405
0.0892852
0.0887246
0.0881591
0.0875835
0.0870021
0.0864138
0.085819
0.0852167
0.0846082
0.0839919
0.0833665
0.0827327
0.0820846
0.0814217
0.0807459
0.0800588
0.0793624
0.078665
0.0779857
0.0773654
0.100247
0.0998996
0.0995322
0.0991497
0.0987554
0.0983488
0.0979326
0.0975036
0.0970599
0.0966007
0.0961266
0.0956392
0.0951443
0.0946408
0.0941266
0.0936069
0.0930845
0.0925583
0.0920211
0.0914762
0.0909265
0.0903708
0.0898094
0.0892385
0.0886612
0.0880766
0.087485
0.0868865
0.0862807
0.0856661
0.0850419
0.084409
0.0837614
0.0830989
0.0824232
0.081736
0.08104
0.0803448
0.0796721
0.0790694
0.1017
0.101359
0.100999
0.100624
0.100238
0.0998394
0.0994316
0.0990113
0.0985769
0.0981275
0.0976621
0.0971835
0.0966976
0.0962031
0.0956981
0.0951878
0.0946746
0.0941559
0.0936258
0.0930876
0.092544
0.0919937
0.0914357
0.0908707
0.0902986
0.0897185
0.0891318
0.0885372
0.0879343
0.0873218
0.0866994
0.086068
0.0854218
0.0847603
0.0840854
0.0833989
0.0827041
0.0820117
0.0813465
0.0807631
0.103124
0.10279
0.102438
0.102071
0.101692
0.101302
0.100903
0.100491
0.100066
0.0996281
0.0991706
0.0987009
0.098224
0.0977388
0.0972436
0.0967431
0.0962404
0.0957282
0.0952051
0.094674
0.0941374
0.0935931
0.0930404
0.0924807
0.0919134
0.0913388
0.0907589
0.0901685
0.0895678
0.0889578
0.088338
0.087709
0.0870649
0.0864051
0.0857317
0.0850466
0.0843536
0.0836647
0.0830077
0.0824449
0.10452
0.104193
0.103848
0.103489
0.103118
0.102737
0.102346
0.101943
0.101527
0.101099
0.100651
0.10019
0.0997231
0.0992476
0.0987624
0.098272
0.097778
0.0972735
0.0967581
0.0962349
0.0957063
0.0951684
0.0946215
0.0940672
0.0935043
0.0929359
0.0923619
0.0917764
0.0911791
0.0905727
0.089957
0.0893312
0.0886899
0.0880326
0.0873613
0.0866781
0.0859875
0.0853026
0.0846546
0.0841132
0.105887
0.105567
0.105229
0.104878
0.104516
0.104142
0.10376
0.103366
0.10296
0.10254
0.102102
0.101652
0.101194
0.100729
0.100254
0.0997751
0.0992883
0.0987915
0.0982843
0.0977697
0.0972508
0.0967188
0.0961779
0.0956295
0.0950724
0.0945099
0.0939417
0.0933616
0.0927692
0.0921674
0.0915565
0.0909344
0.0902962
0.0896418
0.0889731
0.0882925
0.0876048
0.0869246
0.0862858
0.0857665
0.107224
0.106911
0.106581
0.106238
0.105884
0.105519
0.105146
0.104761
0.104363
0.103953
0.103525
0.103085
0.102637
0.102182
0.101718
0.101248
0.10077
0.100282
0.099783
0.0992773
0.0987669
0.0982425
0.0977084
0.0971664
0.096616
0.0960601
0.0954981
0.0949239
0.0943371
0.0937409
0.0931365
0.0925176
0.0918828
0.0912317
0.0905662
0.0898888
0.0892046
0.0885294
0.0879003
0.0874034
0.108532
0.108226
0.107904
0.107569
0.107224
0.106867
0.106502
0.106126
0.105738
0.105337
0.104919
0.104489
0.104052
0.103608
0.103155
0.102693
0.102223
0.101743
0.101254
0.100758
0.100256
0.0997393
0.0992127
0.0986769
0.0981346
0.097586
0.0970308
0.0964629
0.0958821
0.0952917
0.0946929
0.0940787
0.0934482
0.0928013
0.0921397
0.091466
0.090786
0.0901161
0.0894968
0.0890224
0.109811
0.109512
0.109197
0.10887
0.108533
0.108186
0.10783
0.107462
0.107084
0.106693
0.106284
0.105864
0.105437
0.105005
0.104561
0.104108
0.103647
0.103176
0.102697
0.102212
0.101718
0.101209
0.10069
0.100163
0.0996285
0.0990876
0.0985393
0.0979779
0.0974035
0.0968192
0.0962262
0.0956173
0.0949918
0.0943497
0.0936927
0.0930234
0.092348
0.0916839
0.0910745
0.0906224
0.111059
0.110768
0.110461
0.110142
0.109814
0.109475
0.109128
0.108769
0.1084
0.108019
0.10762
0.10721
0.106793
0.106371
0.105936
0.105493
0.105041
0.10458
0.104112
0.103636
0.103151
0.102651
0.102141
0.101623
0.101097
0.100565
0.100023
0.0994683
0.0989005
0.0983232
0.0977361
0.0971329
0.0965129
0.0958761
0.0952243
0.0945601
0.0938898
0.0932318
0.0926323
0.0922022
0.112278
0.111994
0.111695
0.111385
0.111065
0.110735
0.110396
0.110047
0.109687
0.109316
0.108928
0.108527
0.10812
0.107706
0.107282
0.106848
0.106406
0.105956
0.105499
0.105032
0.104555
0.104066
0.103565
0.103056
0.102541
0.102017
0.101481
0.100933
0.100372
0.0998035
0.0992219
0.0986245
0.0980106
0.0973799
0.096734
0.0960754
0.0954107
0.0947592
0.0941695
0.0937607
0.113468
0.113191
0.1129
0.112598
0.112286
0.111965
0.111635
0.111295
0.110945
0.110584
0.110206
0.109816
0.109417
0.109011
0.108597
0.108174
0.107742
0.107301
0.106854
0.106397
0.105929
0.105451
0.10496
0.104462
0.103956
0.10344
0.102911
0.10237
0.101817
0.101256
0.100682
0.100091
0.0994843
0.0988604
0.098221
0.0975687
0.0969102
0.0962654
0.0956853
0.095297
0.114628
0.114358
0.114075
0.113781
0.113478
0.113165
0.112845
0.112514
0.112173
0.111822
0.111457
0.111075
0.110686
0.110289
0.109885
0.109471
0.109049
0.108618
0.108181
0.107733
0.107275
0.106806
0.106326
0.105838
0.105341
0.104832
0.104312
0.10378
0.103235
0.102682
0.102116
0.101533
0.100934
0.100317
0.0996851
0.0990396
0.0983877
0.0977499
0.0971791
0.0968105
0.115758
0.115496
0.115221
0.114935
0.114641
0.114337
0.114025
0.113703
0.113372
0.113031
0.112676
0.112304
0.111925
0.111538
0.111144
0.11074
0.110327
0.109906
0.109477
0.109039
0.108592
0.108133
0.107664
0.107186
0.106697
0.106197
0.105686
0.105162
0.104626
0.104082
0.103524
0.10295
0.102359
0.10175
0.101126
0.100488
0.099843
0.0992122
0.0986506
0.0983004
0.116859
0.116604
0.116337
0.11606
0.115774
0.115479
0.115175
0.114863
0.114541
0.11421
0.113865
0.113504
0.113135
0.112758
0.112373
0.11198
0.111577
0.111165
0.110744
0.110317
0.10988
0.109432
0.108973
0.108504
0.108025
0.107535
0.107032
0.106517
0.105991
0.105456
0.104907
0.104342
0.103759
0.103159
0.102543
0.101913
0.101276
0.100652
0.100099
0.0997665
0.117931
0.117684
0.117425
0.117156
0.116878
0.116591
0.116297
0.115994
0.115681
0.11536
0.115025
0.114675
0.114316
0.113949
0.113574
0.113191
0.112798
0.112396
0.111985
0.111567
0.11114
0.110702
0.110253
0.109794
0.109325
0.108844
0.108352
0.107846
0.107329
0.106804
0.106264
0.105708
0.105135
0.104544
0.103937
0.103315
0.102685
0.102069
0.101525
0.101208
0.118974
0.118735
0.118483
0.118223
0.117953
0.117675
0.11739
0.117096
0.116793
0.116481
0.116157
0.115817
0.115468
0.115111
0.114746
0.114373
0.11399
0.113598
0.113197
0.112789
0.112372
0.111944
0.111506
0.111056
0.110597
0.110126
0.109644
0.109149
0.108642
0.108127
0.107597
0.10705
0.106487
0.105905
0.105306
0.104693
0.104072
0.103463
0.102927
0.102625
0.119989
0.119757
0.119513
0.119261
0.119
0.118731
0.118454
0.118169
0.117875
0.117573
0.117259
0.116931
0.116593
0.116245
0.115888
0.115526
0.115154
0.114773
0.114381
0.113982
0.113576
0.113159
0.112731
0.112291
0.111841
0.111381
0.110909
0.110424
0.109929
0.109424
0.108904
0.108367
0.107813
0.107241
0.106652
0.106048
0.105435
0.104834
0.104305
0.104017
0.120976
0.120751
0.120515
0.120271
0.120018
0.119758
0.11949
0.119214
0.118929
0.118636
0.118333
0.118018
0.117689
0.117351
0.117004
0.116652
0.11629
0.115919
0.115538
0.115148
0.114752
0.114346
0.113928
0.113499
0.113059
0.112609
0.112148
0.111674
0.111192
0.110696
0.110186
0.109659
0.109115
0.108553
0.107974
0.107379
0.106775
0.106181
0.10566
0.105383
0.121935
0.121717
0.121489
0.121253
0.121009
0.120757
0.120498
0.12023
0.119955
0.119672
0.119379
0.119074
0.118756
0.118428
0.118092
0.117749
0.117398
0.117038
0.116667
0.116288
0.115902
0.115506
0.115098
0.11468
0.114251
0.113811
0.11336
0.112898
0.112427
0.111942
0.111442
0.110926
0.110392
0.10984
0.109271
0.108685
0.10809
0.107505
0.10699
0.106724
0.122866
0.122656
0.122436
0.122208
0.121972
0.121728
0.121478
0.121219
0.120953
0.12068
0.120397
0.120103
0.119795
0.119478
0.119152
0.118819
0.118479
0.118129
0.117769
0.1174
0.117023
0.116638
0.116242
0.115834
0.115416
0.114987
0.114547
0.114097
0.113637
0.113162
0.112673
0.112167
0.111643
0.111102
0.110543
0.109968
0.109382
0.108805
0.108297
0.108039
0.123771
0.123568
0.123355
0.123135
0.122907
0.122672
0.122431
0.122181
0.121924
0.12166
0.121387
0.121103
0.120807
0.120501
0.120184
0.119861
0.119531
0.119192
0.118843
0.118485
0.118118
0.117743
0.117358
0.116961
0.116554
0.116136
0.115708
0.115271
0.114821
0.114357
0.113878
0.113383
0.11287
0.112339
0.111791
0.111226
0.11065
0.110081
0.109579
0.109329
0.124648
0.124453
0.124248
0.124036
0.123816
0.12359
0.123357
0.123116
0.122868
0.122613
0.12235
0.122077
0.121793
0.121496
0.12119
0.120877
0.120557
0.120229
0.119891
0.119543
0.119187
0.118822
0.118447
0.118062
0.117666
0.117259
0.116842
0.116417
0.115978
0.115525
0.115057
0.114573
0.114071
0.113552
0.113014
0.112459
0.111893
0.111332
0.110836
0.110592
0.1255
0.125312
0.125115
0.12491
0.124699
0.124481
0.124256
0.124025