/*--------------------------------*- C++ -*----------------------------------*\
| =========                 |                                                 |
| \\      /  F ield         | OpenFOAM: The Open Source CFD Toolbox           |
|  \\    /   O peration     | Version:  3.0.1                                 |
|   \\  /    A nd           | Web:      www.OpenFOAM.org                      |
|    \\/     M anipulation  |                                                 |
\*---------------------------------------------------------------------------*/
FoamFile
{
    version     2.0;
    format      ascii;
    class       volScalarField;
    location    "500";
    object      p;
}
// * * * * * * * * * * * * * * * * * * * * * * * * * * * * * * * * * * * * * //

dimensions      [0 2 -2 0 0 0 0];

internalField   nonuniform List<scalar> 
58000
(
-0.159389
-0.447113
-0.661156
-0.781105
-0.849487
-0.897668
-0.928661
-0.946794
-0.955424
-0.954663
-0.948104
-0.937504
-0.922715
-0.906081
-0.889834
-0.874602
-0.860051
-0.846752
-0.834646
-0.823226
-0.811962
-0.801486
-0.791754
-0.782319
-0.772705
-0.763073
-0.754009
-0.745275
-0.73652
-0.72755
-0.718583
-0.710063
-0.701804
-0.693536
-0.685074
-0.675526
-0.66295
-0.649918
-0.63955
-0.631328
0.18125
0.0467766
-0.102432
-0.247711
-0.371029
-0.476973
-0.566409
-0.64599
-0.709557
-0.756903
-0.791947
-0.814568
-0.826503
-0.831497
-0.830483
-0.824947
-0.817213
-0.808342
-0.798767
-0.788931
-0.779214
-0.769741
-0.760301
-0.750941
-0.74165
-0.732776
-0.723974
-0.715177
-0.706362
-0.697561
-0.689119
-0.680738
-0.67233
-0.663811
-0.655219
-0.646516
-0.63696
-0.627341
-0.619592
-0.614674
0.119592
0.0200593
-0.0823543
-0.187341
-0.284922
-0.374921
-0.455527
-0.526062
-0.588372
-0.638628
-0.679058
-0.710558
-0.732342
-0.746589
-0.755235
-0.758771
-0.758538
-0.755887
-0.751604
-0.746187
-0.740068
-0.73348
-0.726515
-0.719332
-0.712061
-0.704774
-0.697305
-0.689726
-0.682072
-0.674462
-0.666898
-0.659217
-0.651457
-0.6436
-0.635709
-0.627782
-0.61959
-0.611338
-0.603647
-0.596412
0.141608
0.0759073
0.00343804
-0.0774927
-0.160607
-0.242986
-0.320284
-0.391518
-0.456784
-0.51259
-0.560697
-0.601347
-0.632773
-0.656511
-0.674638
-0.686952
-0.694141
-0.697822
-0.698977
-0.698035
-0.695458
-0.691747
-0.687223
-0.682067
-0.676458
-0.670533
-0.664279
-0.657762
-0.651005
-0.644147
-0.637256
-0.630201
-0.623
-0.615645
-0.608217
-0.600823
-0.593392
-0.585935
-0.578658
-0.571589
0.12359
0.0753883
0.0238564
-0.0351903
-0.0988673
-0.165843
-0.23287
-0.29727
-0.359288
-0.414726
-0.464476
-0.508696
-0.545035
-0.574241
-0.598373
-0.616857
-0.629815
-0.638849
-0.644948
-0.648368
-0.649468
-0.6489
-0.647155
-0.644436
-0.640917
-0.636723
-0.632009
-0.626879
-0.621366
-0.615625
-0.609674
-0.603476
-0.597069
-0.590461
-0.583753
-0.577022
-0.570237
-0.563372
-0.556467
-0.549492
0.11437
0.0765934
0.0368254
-0.00871715
-0.058571
-0.1125
-0.168839
-0.224878
-0.281066
-0.333317
-0.381925
-0.426854
-0.465514
-0.498059
-0.526288
-0.549316
-0.56683
-0.580317
-0.590685
-0.598018
-0.602544
-0.604992
-0.605958
-0.60564
-0.604178
-0.601721
-0.598564
-0.594831
-0.590562
-0.585899
-0.580878
-0.575534
-0.569912
-0.564024
-0.557967
-0.551822
-0.545589
-0.539227
-0.532725
-0.526088
0.103386
0.0727842
0.0411292
0.00500989
-0.0346832
-0.0781895
-0.12496
-0.17255
-0.221874
-0.269267
-0.314653
-0.358
-0.396734
-0.430495
-0.460836
-0.486698
-0.507391
-0.524226
-0.537995
-0.548625
-0.55618
-0.561389
-0.564902
-0.5669
-0.567482
-0.566787
-0.565226
-0.562937
-0.559969
-0.556455
-0.552433
-0.548003
-0.543222
-0.538104
-0.532747
-0.527226
-0.521558
-0.515705
-0.509635
-0.503367
0.0938929
0.0682013
0.0420246
0.0123927
-0.0200484
-0.0557075
-0.0946856
-0.134875
-0.177549
-0.219613
-0.260827
-0.301257
-0.338541
-0.371961
-0.402844
-0.430082
-0.452703
-0.47181
-0.488069
-0.501268
-0.511312
-0.51888
-0.524639
-0.528729
-0.531207
-0.532181
-0.532152
-0.531264
-0.529567
-0.527185
-0.524156
-0.520639
-0.516694
-0.512343
-0.507679
-0.502771
-0.497661
-0.492314
-0.486694
-0.480846
0.08536
0.0633026
0.041093
0.0161371
-0.0110223
-0.0408136
-0.0736653
-0.107754
-0.144548
-0.18151
-0.218357
-0.255278
-0.29022
-0.322263
-0.352549
-0.380022
-0.403517
-0.423931
-0.441807
-0.45684
-0.468794
-0.478261
-0.485891
-0.491776
-0.495936
-0.49843
-0.499817
-0.500242
-0.49975
-0.498457
-0.496394
-0.493768
-0.490645
-0.487049
-0.483069
-0.478771
-0.474215
-0.469374
-0.464211
-0.458796
0.0778194
0.0585265
0.039285
0.0178126
-0.00540623
-0.0307671
-0.0588385
-0.0880246
-0.11986
-0.152271
-0.184985
-0.218304
-0.250509
-0.280594
-0.309554
-0.336439
-0.359992
-0.380924
-0.399671
-0.415869
-0.42917
-0.440064
-0.449163
-0.456508
-0.46209
-0.465905
-0.468548
-0.470155
-0.470764
-0.47048
-0.469324
-0.467543
-0.465203
-0.462329
-0.459008
-0.4553
-0.451282
-0.446937
-0.442226
-0.437249
0.0711448
0.0540267
0.0370818
0.0182874
-0.00191359
-0.0238691
-0.04819
-0.0734597
-0.101193
-0.129688
-0.158702
-0.188611
-0.218006
-0.245878
-0.273108
-0.298876
-0.32191
-0.342768
-0.361789
-0.378586
-0.39273
-0.404611
-0.414791
-0.42326
-0.429985
-0.434902
-0.438617
-0.441252
-0.442834
-0.443459
-0.443134
-0.442132
-0.440519
-0.43832
-0.435619
-0.432472
-0.428968
-0.425099
-0.420828
-0.41628
0.0652294
0.0498651
0.0347453
0.0180654
0.000235049
-0.0190479
-0.0403892
-0.0625195
-0.0868844
-0.112066
-0.137858
-0.164677
-0.19138
-0.217005
-0.242336
-0.266689
-0.288826
-0.309187
-0.328036
-0.344982
-0.359551
-0.372035
-0.382943
-0.392221
-0.399821
-0.405616
-0.41021
-0.413707
-0.416123
-0.417544
-0.417958
-0.417657
-0.416704
-0.415123
-0.412995
-0.41037
-0.407349
-0.40393
-0.400077
-0.395941
0.059973
0.0460535
0.0324182
0.0174473
0.00152087
-0.0156225
-0.0345613
-0.0541516
-0.0757444
-0.0981401
-0.121163
-0.145249
-0.169476
-0.192945
-0.216358
-0.239159
-0.260179
-0.279766
-0.29813
-0.314892
-0.32955
-0.342318
-0.353652
-0.363464
-0.371692
-0.378155
-0.383441
-0.387635
-0.390742
-0.39284
-0.393894
-0.394209
-0.393841
-0.392815
-0.391206
-0.38906
-0.386484
-0.383482
-0.380021
-0.376274
0.0552879
0.0425807
0.0301767
0.0166151
0.00224816
-0.0131509
-0.0301226
-0.0476315
-0.0669266
-0.086979
-0.107637
-0.129337
-0.151331
-0.172795
-0.194364
-0.21559
-0.235391
-0.254043
-0.271713
-0.288049
-0.302546
-0.315348
-0.326861
-0.33697
-0.345606
-0.352549
-0.358354
-0.363092
-0.366753
-0.369408
-0.371003
-0.371845
-0.371987
-0.371448
-0.370302
-0.368588
-0.366416
-0.363796
-0.360695
-0.35731
0.0510993
0.0394252
0.02806
0.0156806
0.00261345
-0.0113388
-0.0266757
-0.042457
-0.0598296
-0.0779014
-0.0965399
-0.116167
-0.136173
-0.155812
-0.175656
-0.195351
-0.213906
-0.231544
-0.248399
-0.264149
-0.278301
-0.290946
-0.302444
-0.312657
-0.321518
-0.328772
-0.334944
-0.340085
-0.344174
-0.347274
-0.349314
-0.350597
-0.351172
-0.351055
-0.350314
-0.348982
-0.347171
-0.344894
-0.342123
-0.339069
0.047343
0.0365613
0.0260853
0.0147127
0.00274546
-0.00998876
-0.0239483
-0.0382776
-0.0540261
-0.0704122
-0.0873199
-0.10515
-0.123398
-0.141392
-0.159653
-0.177897
-0.195225
-0.211825
-0.227804
-0.24287
-0.256553
-0.268902
-0.280235
-0.290402
-0.299337
-0.306763
-0.313169
-0.318589
-0.322991
-0.326433
-0.328829
-0.330473
-0.331408
-0.331648
-0.331254
-0.330255
-0.328763
-0.326792
-0.324315
-0.321563
0.0439642
0.0339615
0.0242565
0.0137529
0.0027292
-0.00896538
-0.0217498
-0.0348445
-0.0492071
-0.0641477
-0.0795635
-0.09583
-0.112527
-0.12905
-0.145869
-0.162762
-0.178916
-0.194489
-0.209571
-0.223901
-0.237035
-0.248993
-0.260052
-0.270059
-0.27895
-0.286433
-0.292959
-0.29855
-0.303167
-0.306858
-0.309528
-0.311459
-0.312686
-0.313221
-0.31312
-0.312407
-0.311192
-0.309489
-0.307275
-0.304793
0.0409157
0.0316001
0.022571
0.0128262
0.00262166
-0.00817485
-0.0199449
-0.0319779
-0.0451467
-0.0588376
-0.0729591
-0.0878599
-0.103187
-0.118396
-0.133913
-0.14956
-0.164607
-0.179189
-0.193384
-0.206957
-0.219497
-0.231
-0.24171
-0.251471
-0.260225
-0.267672
-0.274227
-0.2799
-0.284645
-0.288506
-0.291377
-0.293527
-0.294985
-0.295758
-0.2959
-0.295429
-0.29445
-0.292981
-0.290998
-0.288756
0.0381582
0.0294537
0.0210226
0.0119468
0.00246108
-0.00755102
-0.0184365
-0.0295471
-0.0416777
-0.0542799
-0.0672713
-0.0809737
-0.0950877
-0.109123
-0.123464
-0.137971
-0.151986
-0.165626
-0.178961
-0.191783
-0.203708
-0.214716
-0.225026
-0.234481
-0.243028
-0.250366
-0.256875
-0.262556
-0.267359
-0.27132
-0.274328
-0.276638
-0.278271
-0.279233
-0.279572
-0.279301
-0.278523
-0.277254
-0.275472
-0.273441
0.0356577
0.0275009
0.0196035
0.0111226
0.00227362
-0.00704657
-0.0171535
-0.0274553
-0.0386753
-0.0503216
-0.0623195
-0.0749647
-0.0880006
-0.100985
-0.114266
-0.127731
-0.140792
-0.153548
-0.166061
-0.178148
-0.189454
-0.19995
-0.209828
-0.218936
-0.227226
-0.234399
-0.240804
-0.246434
-0.251235
-0.255239
-0.258331
-0.260748
-0.262508
-0.263613
-0.264108
-0.264
-0.263389
-0.262289
-0.260682
-0.258835
0.0333849
0.0257226
0.0183051
0.0103574
0.00207695
-0.00662761
-0.0160435
-0.0256301
-0.0360454
-0.0468463
-0.0579651
-0.0696725
-0.0817467
-0.0937887
-0.106112
-0.118629
-0.130808
-0.14274
-0.154476
-0.165853
-0.17655
-0.186528
-0.195959
-0.204693
-0.212689
-0.219658
-0.225915
-0.231447
-0.236198
-0.240197
-0.243326
-0.245806
-0.247652
-0.248861
-0.249475
-0.249498
-0.249023
-0.248064
-0.246606
-0.244919
0.0313143
0.0241015
0.0171185
0.00965205
0.00188277
-0.00627029
-0.015068
-0.0240172
-0.0337162
-0.0437643
-0.0541004
-0.0649713
-0.076184
-0.087378
-0.0988363
-0.110488
-0.121856
-0.133021
-0.144026
-0.154728
-0.164832
-0.174297
-0.183274
-0.191621
-0.199301
-0.206035
-0.21211
-0.217509
-0.222172
-0.226127
-0.229255
-0.231762
-0.233656
-0.234936
-0.235637
-0.235761
-0.235395
-0.234554
-0.233221
-0.231672
0.0294241
0.0226216
0.0160347
0.00900515
0.00169845
-0.00595703
-0.0141983
-0.0225755
-0.0316324
-0.0410061
-0.0506408
-0.0607614
-0.0711989
-0.0816269
-0.0923015
-0.103165
-0.113787
-0.124238
-0.134559
-0.144621
-0.154156
-0.163119
-0.171646
-0.179601
-0.186951
-0.193431
-0.199299
-0.204537
-0.209084
-0.212964
-0.21606
-0.218562
-0.220475
-0.221796
-0.222557
-0.222757
-0.222477
-0.22173
-0.220504
-0.219072
0.0276951
0.0212693
0.0150449
0.00841453
0.00152918
-0.00567479
-0.0134122
-0.0212724
-0.0297502
-0.0385162
-0.0475191
-0.0569634
-0.0667001
-0.0764339
-0.0863964
-0.0965396
-0.106475
-0.116266
-0.125947
-0.135406
-0.144397
-0.152875
-0.16096
-0.168524
-0.175539
-0.181752
-0.187398
-0.192454
-0.196863
-0.200644
-0.203683
-0.206155
-0.208062
-0.209399
-0.210196
-0.21045
-0.210235
-0.209565
-0.208426
-0.207094
0.0261108
0.0200323
0.0141414
0.00787746
0.00137797
-0.00541378
-0.0126925
-0.0200831
-0.0280355
-0.0362507
-0.0446816
-0.0535138
-0.0626149
-0.0717175
-0.0810309
-0.090515
-0.0998184
-0.108998
-0.118083
-0.126975
-0.135449
-0.143461
-0.151116
-0.158297
-0.164976
-0.170916
-0.176328
-0.181189
-0.185443
-0.189107
-0.192069
-0.19449
-0.196371
-0.197704
-0.198517
-0.198806
-0.198638
-0.198028
-0.196962
-0.195713
0.0246568
0.0188996
0.013317
0.00739089
0.0012462
-0.0051674
-0.0120264
-0.0189883
-0.0264619
-0.0341757
-0.0420863
-0.0503619
-0.0588841
-0.0674107
-0.0761308
-0.0850103
-0.0937312
-0.102344
-0.110874
-0.119234
-0.127219
-0.134785
-0.142027
-0.148832
-0.15518
-0.160844
-0.166018
-0.170675
-0.174762
-0.178295
-0.181165
-0.183519
-0.185357
-0.18667
-0.187483
-0.18779
-0.187655
-0.18709
-0.186083
-0.184905
0.0233201
0.0178613
0.0125648
0.00695136
0.00113424
-0.00493101
-0.0114042
-0.0179729
-0.0250083
-0.0322637
-0.0396989
-0.0474662
-0.0554595
-0.0634585
-0.0716342
-0.0799578
-0.0881409
-0.0962282
-0.104242
-0.112103
-0.119626
-0.126768
-0.133612
-0.140056
-0.146078
-0.151468
-0.156401
-0.16085
-0.164763
-0.168154
-0.170921
-0.173196
-0.174977
-0.176257
-0.177056
-0.177369
-0.177254
-0.176722
-0.175764
-0.174643
0.0220896
0.0169088
0.0118787
0.00655548
0.00104199
-0.0047012
-0.0108184
-0.0170247
-0.0236576
-0.0304919
-0.037491
-0.0447925
-0.0523007
-0.0598151
-0.0674901
-0.0753013
-0.0829869
-0.0905868
-0.0981195
-0.105514
-0.112601
-0.11934
-0.125805
-0.131899
-0.137605
-0.142726
-0.147419
-0.151657
-0.155393
-0.158637
-0.161291
-0.163478
-0.165193
-0.166427
-0.167202
-0.16751
-0.167405
-0.166896
-0.165976
-0.164904
0.0209549
0.0160341
0.0112529
0.0061999
0.000968778
-0.00447532
-0.0102629
-0.0161342
-0.0223956
-0.028842
-0.0354394
-0.0423121
-0.0493737
-0.0564421
-0.0636559
-0.0709936
-0.0782182
-0.0853647
-0.0924491
-0.0994066
-0.106084
-0.112441
-0.118544
-0.124304
-0.129704
-0.134561
-0.139018
-0.143047
-0.146603
-0.149696
-0.152232
-0.154323
-0.155964
-0.157146
-0.157888
-0.158182
-0.158078
-0.157584
-0.156694
-0.155661
0.0199075
0.0152301
0.0106818
0.00588137
0.00091364
-0.00425186
-0.00973304
-0.0152935
-0.0212111
-0.0272985
-0.0335248
-0.0400019
-0.0466513
-0.0533074
-0.0600951
-0.0669949
-0.073791
-0.0805154
-0.0871816
-0.0937305
-0.100022
-0.106018
-0.111778
-0.117218
-0.122324
-0.126925
-0.13115
-0.134973
-0.13835
-0.14129
-0.143704
-0.145695
-0.147257
-0.14838
-0.149082
-0.149355
-0.149245
-0.14876
-0.147893
-0.146892
0.018939
0.0144902
0.0101606
0.00559672
0.000875571
-0.00402959
-0.00922544
-0.0144966
-0.0200948
-0.0258492
-0.0317315
-0.0378424
-0.0441102
-0.0503841
-0.0567767
-0.0632702
-0.0696685
-0.0759998
-0.0822755
-0.0884417
-0.0943707
-0.100025
-0.10546
-0.110595
-0.115418
-0.119772
-0.123772
-0.127393
-0.130593
-0.133379
-0.135671
-0.137559
-0.139037
-0.140097
-0.140754
-0.141001
-0.140879
-0.140397
-0.139547
-0.138572
0.0180426
0.0138088
0.00968483
0.00534315
0.00085348
-0.00380788
-0.00873723
-0.0137383
-0.019039
-0.0244837
-0.0300461
-0.0358169
-0.0417307
-0.0476497
-0.0536752
-0.0597909
-0.0658188
-0.0717837
-0.0776946
-0.0835022
-0.0890898
-0.0944228
-0.0995481
-0.104393
-0.108946
-0.113062
-0.116843
-0.120268
-0.123294
-0.125929
-0.128097
-0.129881
-0.131273
-0.132267
-0.132876
-0.133093
-0.132955
-0.132471
-0.131634
-0.130679
0.0172117
0.0131807
0.00925065
0.00511814
0.000846121
-0.00358642
-0.00826631
-0.0130145
-0.0180375
-0.0231933
-0.0284576
-0.0339118
-0.0394959
-0.0450845
-0.0507685
-0.0565326
-0.0622149
-0.0678375
-0.0734071
-0.0788786
-0.0841455
-0.0891744
-0.0940075
-0.0985774
-0.102873
-0.106759
-0.11033
-0.113563
-0.11642
-0.118907
-0.120952
-0.122631
-0.123938
-0.124864
-0.125422
-0.125605
-0.125448
-0.124958
-0.12413
-0.123191
0.0164408
0.0126011
0.00885447
0.0049192
0.000852115
-0.00336522
-0.00781089
-0.0123218
-0.017085
-0.0219706
-0.0269563
-0.0321151
-0.0373917
-0.0426719
-0.0480374
-0.0534736
-0.0588334
-0.0641357
-0.0693859
-0.0745423
-0.0795071
-0.0842494
-0.0888061
-0.0931146
-0.0971643
-0.100831
-0.1042
-0.107249
-0.109941
-0.112283
-0.114207
-0.115782
-0.117003
-0.11786
-0.118365
-0.118513
-0.118334
-0.117836
-0.117015
-0.116088
0.0157246
0.012066
0.00849291
0.00474393
0.000870185
-0.00314423
-0.00736948
-0.0116574
-0.0161769
-0.0208094
-0.0255342
-0.0304167
-0.035406
-0.0403979
-0.0454655
-0.0505955
-0.0556537
-0.0606564
-0.0656072
-0.0704677
-0.0751487
-0.0796203
-0.0839155
-0.0879763
-0.0917924
-0.0952499
-0.0984248
-0.101295
-0.103829
-0.106029
-0.107835
-0.109309
-0.110443
-0.111232
-0.111684
-0.111794
-0.111592
-0.111084
-0.110266
-0.109349
0.0150586
0.0115716
0.0081629
0.00459008
0.000899193
-0.00292347
-0.00694105
-0.0110188
-0.0153093
-0.0197042
-0.0241842
-0.0288078
-0.0335281
-0.0382497
-0.0430388
-0.0478827
-0.0526584
-0.05738
-0.0620501
-0.0666329
-0.0710462
-0.0752627
-0.0793108
-0.0831368
-0.086731
-0.0899886
-0.0929774
-0.0956777
-0.0980577
-0.100122
-0.101813
-0.103186
-0.104237
-0.104957
-0.105356
-0.105429
-0.105202
-0.104682
-0.103866
-0.102955
0.0144386
0.0111143
0.00786167
0.00445577
0.000938117
-0.00270319
-0.00652486
-0.0104043
-0.0144793
-0.0186506
-0.0229003
-0.0272809
-0.0317486
-0.036217
-0.0407454
-0.045321
-0.0498319
-0.05429
-0.0586962
-0.0630177
-0.0671795
-0.071155
-0.0749695
-0.0785733
-0.0819569
-0.0850238
-0.0878353
-0.0903719
-0.092605
-0.0945375
-0.0961165
-0.097393
-0.0983612
-0.0990139
-0.0993606
-0.0993956
-0.0991439
-0.0986114
-0.0977952
-0.0968891
0.0138611
0.0106913
0.00758681
0.00433926
0.000985858
-0.00248371
-0.00612016
-0.00981211
-0.0136837
-0.0176444
-0.0216774
-0.0258293
-0.0300601
-0.0342908
-0.0385744
-0.0428986
-0.0471607
-0.0513709
-0.0555295
-0.0596055
-0.0635298
-0.067278
-0.0708719
-0.0742652
-0.0774489
-0.0803345
-0.0829766
-0.0853574
-0.0874491
-0.0892551
-0.0907264
-0.0919089
-0.0927969
-0.0933842
-0.093679
-0.0936765
-0.0933995
-0.0928537
-0.0920365
-0.0911334
0.0133224
0.0102996
0.00733612
0.00423887
0.00104135
-0.00226524
-0.00572635
-0.00924073
-0.0129203
-0.0166822
-0.0205107
-0.0244475
-0.0284555
-0.0324629
-0.0365167
-0.0406045
-0.0446328
-0.0486102
-0.0525355
-0.0563802
-0.0600811
-0.0636146
-0.0669999
-0.0701941
-0.0731884
-0.0759014
-0.0783824
-0.0806139
-0.0825711
-0.0842559
-0.0856233
-0.0867149
-0.0875258
-0.0880492
-0.0882937
-0.0882541
-0.087952
-0.0873925
-0.0865736
-0.0856721
0.0128198
0.00993669
0.00710755
0.00415316
0.00110376
-0.00204809
-0.00534296
-0.00868894
-0.0121869
-0.015761
-0.0193967
-0.0231308
-0.0269294
-0.0307265
-0.0345637
-0.0384294
-0.0422377
-0.0459956
-0.0497016
-0.0533286
-0.0568184
-0.0601494
-0.0633375
-0.0663433
-0.0691581
-0.0717073
-0.0740348
-0.0761247
-0.0779529
-0.0795218
-0.0807897
-0.0817941
-0.0825301
-0.0829924
-0.0831876
-0.0831123
-0.0827853
-0.0822123
-0.081391
-0.0804902
0.0123502
0.0096003
0.00689924
0.00408081
0.00117226
-0.00183252
-0.00496972
-0.00815599
-0.011482
-0.0148785
-0.018332
-0.0218752
-0.0254763
-0.0290749
-0.0327084
-0.0363647
-0.0399658
-0.0435171
-0.0470162
-0.050438
-0.0537291
-0.0568684
-0.0598703
-0.0626978
-0.0653426
-0.0677363
-0.0699183
-0.0718728
-0.0735787
-0.0750369
-0.0762094
-0.0771302
-0.0777949
-0.0781977
-0.0783458
-0.0782356
-0.0778846
-0.0772982
-0.0764744
-0.0755735
0.0119111
0.00928825
0.00670939
0.0040205
0.00124607
-0.00161887
-0.00460648
-0.00764114
-0.0108042
-0.0140326
-0.0173139
-0.0206767
-0.0240913
-0.0275028
-0.0309438
-0.0344031
-0.0378088
-0.0411651
-0.0444694
-0.0476977
-0.0508008
-0.0537592
-0.056585
-0.0592439
-0.0617279
-0.0639742
-0.0660176
-0.0678442
-0.0694331
-0.070786
-0.0718677
-0.0727087
-0.0733045
-0.0736509
-0.0737537
-0.0736099
-0.0732359
-0.0726365
-0.0718103
-0.0709088
0.0115002
0.00899851
0.00653634
0.00397094
0.00132431
-0.0014075
-0.00425305
-0.00714368
-0.0101523
-0.0132216
-0.0163397
-0.0195319
-0.0227704
-0.0260048
-0.0292644
-0.0325376
-0.0357589
-0.0389314
-0.0420516
-0.0450974
-0.0480232
-0.0508106
-0.0534699
-0.0559694
-0.0583013
-0.0604077
-0.0623201
-0.0640246
-0.0655029
-0.0667556
-0.0677504
-0.0685153
-0.0690462
-0.0693382
-0.0693978
-0.0692221
-0.0688262
-0.0682145
-0.067386
-0.0664838
0.0111154
0.00872928
0.00637857
0.00393095
0.00140619
-0.00119881
-0.00390929
-0.00666291
-0.00952522
-0.0124435
-0.015407
-0.0184376
-0.0215095
-0.0245768
-0.0276646
-0.0307623
-0.0338094
-0.0368081
-0.0397548
-0.0426282
-0.0453865
-0.0480124
-0.0505143
-0.0528631
-0.0550509
-0.0570249
-0.0588128
-0.0604021
-0.061775
-0.0629325
-0.0638452
-0.0645378
-0.0650063
-0.0652473
-0.0652658
-0.0650599
-0.0646431
-0.0640202
-0.0631897
-0.0622871
0.0107546
0.00847886
0.0062347
0.00389949
0.00149099
-0.000993114
-0.00357501
-0.00619842
-0.00892163
-0.0116968
-0.0145136
-0.0173912
-0.0203054
-0.0232141
-0.0261399
-0.0290715
-0.031954
-0.0347887
-0.0375712
-0.0402819
-0.0428821
-0.0453552
-0.0477084
-0.0499147
-0.0519662
-0.0538147
-0.0554849
-0.0569646
-0.0582381
-0.0593055
-0.0601399
-0.0607638
-0.0611739
-0.061366
-0.0613459
-0.0611115
-0.0606754
-0.0600422
-0.0592104
-0.0583076
0.0104161
0.00824578
0.00610347
0.0038756
0.00157807
-0.000790643
-0.00325027
-0.00574952
-0.00834071
-0.0109799
-0.0136574
-0.0163899
-0.0191547
-0.0219135
-0.0246855
-0.0274603
-0.0301872
-0.0328667
-0.0354943
-0.0380512
-0.0405017
-0.0428305
-0.0450432
-0.0471147
-0.0490374
-0.0507671
-0.0523256
-0.0537022
-0.0548812
-0.0558632
-0.0566238
-0.0571829
-0.0575371
-0.0576838
-0.0576272
-0.0573662
-0.0569124
-0.0562699
-0.0554377
-0.0545353
0.0100982
0.00802861
0.00598374
0.0038584
0.00166688
-0.000591805
-0.00293481
-0.00531589
-0.00778146
-0.0102914
-0.0128365
-0.0154314
-0.0180547
-0.0206712
-0.0232979
-0.0259242
-0.0285038
-0.0310366
-0.0335175
-0.0359291
-0.0382384
-0.0404306
-0.0425104
-0.0444545
-0.0462554
-0.0478728
-0.049326
-0.0506043
-0.0516945
-0.0525959
-0.0532864
-0.0537842
-0.0540866
-0.0541899
-0.0540995
-0.0538139
-0.0533438
-0.0526935
-0.0518618
-0.0509608
0.0097995
0.00782611
0.00587445
0.00384709
0.00175683
-0.000396692
-0.00262867
-0.004897
-0.00724304
-0.00963009
-0.0120495
-0.0145136
-0.0170027
-0.0194844
-0.0219731
-0.024459
-0.0268992
-0.029293
-0.0316355
-0.0339097
-0.0360851
-0.0381483
-0.0401025
-0.0419262
-0.0436121
-0.0451232
-0.0464766
-0.0476628
-0.0486685
-0.0494939
-0.0501186
-0.0505588
-0.0508117
-0.0508752
-0.050753
-0.0504448
-0.0499603
-0.0493035
-0.0484734
-0.0475749
0.00951848
0.0076371
0.00577466
0.00384096
0.00184755
-0.000205653
-0.00233165
-0.00449246
-0.00672471
-0.00899483
-0.0112946
-0.0136347
-0.0159964
-0.0183499
-0.0207082
-0.0230609
-0.0253691
-0.0276315
-0.0298427
-0.0319869
-0.0340361
-0.035977
-0.0378126
-0.0395225
-0.0410997
-0.0425104
-0.0437698
-0.0448684
-0.045795
-0.0465488
-0.0471113
-0.0474972
-0.0477044
-0.0477301
-0.0475789
-0.0472501
-0.0467528
-0.0460912
-0.0452637
-0.0443691
0.00925396
0.00746054
0.00568349
0.00383939
0.00193845
-1.87585e-05
-0.00204375
-0.00410192
-0.00622577
-0.00838459
-0.0105706
-0.0127927
-0.0150334
-0.0172655
-0.0194998
-0.0217265
-0.0239096
-0.0260473
-0.0281345
-0.0301559
-0.0320854
-0.0339109
-0.0356343
-0.0372366
-0.0387112
-0.0400271
-0.0411974
-0.0422141
-0.0430656
-0.0437519
-0.0442562
-0.0445914
-0.0447553
-0.0447466
-0.0445685
-0.0442212
-0.0437131
-0.0430477
-0.0422247
-0.0413352
0.00900473
0.00729543
0.00560016
0.00384167
0.00202928
0.000163692
-0.00176485
-0.00372503
-0.00574559
-0.0077984
-0.00987605
-0.011986
-0.0141119
-0.0162286
-0.0183453
-0.0204524
-0.022517
-0.0245369
-0.0265064
-0.0284115
-0.0302281
-0.0319443
-0.0335615
-0.0350623
-0.0364399
-0.0376662
-0.0387529
-0.0396917
-0.0404731
-0.0410962
-0.0415455
-0.0418331
-0.0419574
-0.0419162
-0.0417138
-0.04135
-0.0408326
-0.0401657
-0.0393478
-0.0384652
0.00876973
0.00714088
0.00552388
0.00384736
0.00211955
0.000341624
-0.00149484
-0.00336145
-0.00528355
-0.00723538
-0.00920988
-0.0112132
-0.0132299
-0.015237
-0.0172421
-0.0192359
-0.0211881
-0.0230961
-0.0249545
-0.0267495
-0.0284589
-0.030072
-0.031589
-0.0329937
-0.0342799
-0.0354217
-0.0364292
-0.0372954
-0.0380103
-0.0385738
-0.0389719
-0.0392153
-0.0393022
-0.0392318
-0.0390071
-0.0386288
-0.0381041
-0.0374365
-0.0366259
-0.0357514
0.00854796
0.00699604
0.00545403
0.00385588
0.00220905
0.000514911
-0.00123365
-0.00301088
-0.0048391
-0.0066947
-0.00857094
-0.0104728
-0.0123858
-0.0142886
-0.0161878
-0.0180741
-0.0199198
-0.0217219
-0.0234747
-0.0251655
-0.0267739
-0.0282892
-0.0297114
-0.0310256
-0.0322254
-0.0332875
-0.0342207
-0.0350179
-0.0356708
-0.0361785
-0.0365285
-0.0367305
-0.0367835
-0.0366857
-0.0364412
-0.0360503
-0.0355197
-0.0348537
-0.0340508
-0.0331865
0.00833851
0.00686018
0.00539
0.00386684
0.00229743
0.000683447
-0.00098116
-0.00267303
-0.0044117
-0.00617558
-0.0079582
-0.00976347
-0.0115778
-0.0133816
-0.0151801
-0.0169645
-0.0187091
-0.0204106
-0.0220636
-0.023656
-0.0251684
-0.0265914
-0.0279241
-0.0291527
-0.0302712
-0.0312581
-0.0321211
-0.0328539
-0.0334482
-0.0339035
-0.0342089
-0.0343727
-0.0343936
-0.0342715
-0.034009
-0.0336073
-0.0330729
-0.0324091
-0.0316161
-0.0307629
0.00814053
0.00673263
0.00533117
0.00387977
0.00238448
0.000847115
-0.000737306
-0.00234761
-0.00400089
-0.0056773
-0.00737067
-0.00908401
-0.0108045
-0.0125141
-0.0142171
-0.0159047
-0.0175534
-0.0191597
-0.020718
-0.022217
-0.023639
-0.0249745
-0.0262227
-0.0273706
-0.0284123
-0.0293283
-0.0301254
-0.0307972
-0.0313369
-0.0317434
-0.0320068
-0.0321349
-0.0321271
-0.0319822
-0.031704
-0.0312933
-0.0307561
-0.0300967
-0.0293139
-0.0284734
0.00795325
0.00661264
0.00527705
0.00389431
0.00246986
0.00100584
-0.000501973
-0.00203435
-0.00360615
-0.00519915
-0.00680744
-0.00843327
-0.0100645
-0.0116846
-0.0132966
-0.0148925
-0.0164502
-0.0179661
-0.0194348
-0.0208455
-0.0221817
-0.0234347
-0.024603
-0.0256746
-0.026644
-0.0274932
-0.028228
-0.0288431
-0.0293311
-0.0296919
-0.0299166
-0.0300118
-0.0299769
-0.029812
-0.0295197
-0.0291016
-0.0285635
-0.0279087
-0.027138
-0.0263111
0.00777589
0.00649969
0.00522711
0.00391004
0.00255349
0.00115957
-0.000275066
-0.00173297
-0.00322703
-0.00474048
-0.00626769
-0.00781017
-0.00935654
-0.0108914
-0.0124172
-0.0139258
-0.0153971
-0.0168274
-0.0182112
-0.0195382
-0.0207934
-0.0219682
-0.023061
-0.0240607
-0.0249619
-0.0257482
-0.0264247
-0.0269859
-0.0274261
-0.0277443
-0.0279325
-0.0279973
-0.0279382
-0.0277546
-0.0274501
-0.0270261
-0.0264878
-0.0258397
-0.025081
-0.0242689
0.00760782
0.00639316
0.00518096
0.00392677
0.00263507
0.00130825
-5.64729e-05
-0.00144321
-0.00286309
-0.00430068
-0.00575059
-0.00721371
-0.00867927
-0.0101331
-0.0115769
-0.0130028
-0.0143921
-0.015741
-0.0170444
-0.0182924
-0.0194707
-0.0205716
-0.0215932
-0.022525
-0.0233619
-0.0240891
-0.0247105
-0.0252217
-0.0256166
-0.025895
-0.0260497
-0.0260864
-0.0260045
-0.0258047
-0.0254894
-0.0250607
-0.0245239
-0.0238823
-0.0231371
-0.0223401
0.00744836
0.00629261
0.00513817
0.00394409
0.00271455
0.00145183
0.000153901
-0.00116483
-0.00251391
-0.00387916
-0.00525538
-0.00664292
-0.00803162
-0.00940834
-0.0107742
-0.0121214
-0.0134329
-0.0147049
-0.0159319
-0.017105
-0.0182108
-0.0192418
-0.020196
-0.0210638
-0.0218402
-0.0225116
-0.0230815
-0.0235453
-0.0238983
-0.0241397
-0.024263
-0.0242735
-0.0241715
-0.0239565
-0.0236321
-0.0231999
-0.0226649
-0.0220315
-0.0212992
-0.0205179
0.00729701
0.00619748
0.00509837
0.00396185
0.00279164
0.00159029
0.000356169
-0.000897585
-0.00217911
-0.00347536
-0.00478133
-0.00609688
-0.00741244
-0.00871588
-0.0100075
-0.0112801
-0.0125178
-0.0137166
-0.0148716
-0.0159737
-0.0170107
-0.0179757
-0.0188664
-0.0196738
-0.0203931
-0.021012
-0.0215333
-0.0219532
-0.0222666
-0.0224734
-0.0225678
-0.0225545
-0.0224333
-0.0222052
-0.0218728
-0.021438
-0.0209061
-0.0202803
-0.019562
-0.018796
0.00715308
0.00610739
0.00506119
0.00397966
0.00286633
0.0017236
0.00055043
-0.000641239
-0.0018583
-0.00308873
-0.00432772
-0.00557473
-0.0068207
-0.00805426
-0.00927552
-0.0104772
-0.0116448
-0.0127744
-0.0138609
-0.0148958
-0.015868
-0.0167705
-0.0176011
-0.0183516
-0.0190172
-0.0195867
-0.0200626
-0.0204408
-0.0207176
-0.0208922
-0.0209595
-0.020924
-0.020786
-0.0205457
-0.0202065
-0.0197701
-0.0192413
-0.0186242
-0.017919
-0.0171684
0.00701618
0.00602184
0.00502628
0.00399744
0.00293838
0.00185175
0.000736799
-0.000395562
-0.00155112
-0.00271877
-0.00389391
-0.00507562
-0.00625533
-0.00742257
-0.00857675
-0.00971123
-0.0108124
-0.0118762
-0.0128979
-0.0138693
-0.0147799
-0.0156234
-0.0163974
-0.0170942
-0.0177092
-0.0182323
-0.0186653
-0.019005
-0.0192472
-0.0193917
-0.0194342
-0.0193784
-0.0192245
-0.0189737
-0.0186284
-0.018191
-0.0176661
-0.0170571
-0.0163654
-0.0156293
0.00688571
0.00594049
0.00499339
0.00401483
0.00300779
0.00197473
0.000915377
-0.000160332
-0.0012572
-0.00236499
-0.00347925
-0.00459878
-0.00571546
-0.00681949
-0.00791013
-0.00898071
-0.0100188
-0.0110204
-0.0119805
-0.0128918
-0.0137443
-0.0145321
-0.0152526
-0.0158987
-0.0164661
-0.0169455
-0.0173385
-0.0176416
-0.0178518
-0.0179685
-0.0179876
-0.0179129
-0.0177451
-0.0174844
-0.0171341
-0.0166963
-0.0161752
-0.0155748
-0.0148955
-0.0141735
0.00676131
0.00586297
0.0049622
0.0040318
0.00307436
0.00209254
0.00108628
6.46745e-05
-0.000976215
-0.00202692
-0.00308316
-0.00414345
-0.00520013
-0.00624417
-0.00727426
-0.00828427
-0.00926248
-0.0102049
-0.0111069
-0.0119613
-0.0127589
-0.013494
-0.0141641
-0.0147625
-0.015285
-0.0157233
-0.0160785
-0.0163479
-0.0165279
-0.0166185
-0.0166163
-0.0165244
-0.0163432
-0.0160741
-0.0157194
-0.0152815
-0.0147646
-0.014172
-0.0135052
-0.0127961
0.00664249
0.00578896
0.00493249
0.00404803
0.00313811
0.0022052
0.00124963
0.000279675
-0.000707822
-0.00170412
-0.00270504
-0.00370893
-0.00470857
-0.00569542
-0.00666817
-0.00762057
-0.00854198
-0.00942848
-0.0102753
-0.0110758
-0.0118215
-0.0125069
-0.0131294
-0.0136828
-0.0141632
-0.0145629
-0.0148829
-0.0151202
-0.0152724
-0.0153388
-0.0153165
-0.0152086
-0.0150158
-0.0147387
-0.0143803
-0.0139427
-0.0134298
-0.0128453
-0.0121896
-0.0114929
0.00652891
0.00571812
0.00490398
0.00406349
0.00319886
0.00231273
0.00140553
0.000484885
-0.000451697
-0.00139612
-0.00234436
-0.00329456
-0.0042399
-0.00517251
-0.00609058
-0.00698841
-0.00785596
-0.0086893
-0.00948405
-0.0102337
-0.0109302
-0.0115686
-0.0121462
-0.0126573
-0.013098
-0.0134614
-0.0137482
-0.013956
-0.0140818
-0.0141257
-0.0140851
-0.0139626
-0.0137587
-0.0134748
-0.0131132
-0.0126761
-0.0121674
-0.0115901
-0.0109455
-0.0102599
0.00642013
0.00565015
0.00487648
0.00407791
0.00325665
0.00241513
0.0015541
0.00068051
-0.000207529
-0.00110252
-0.00200057
-0.00289969
-0.00379342
-0.00467433
-0.00554064
-0.00638661
-0.00720304
-0.00798615
-0.00873141
-0.00943288
-0.0100831
-0.0106771
-0.0112125
-0.0116836
-0.0120871
-0.0124164
-0.0126723
-0.012852
-0.0129537
-0.0129767
-0.0129189
-0.0127828
-0.0125693
-0.0122789
-0.0119146
-0.0114784
-0.0109736
-0.0104037
-0.00976891
-0.009094
0.00631584
0.00558479
0.00484975
0.00409128
0.00331132
0.00251244
0.00169545
0.000866755
2.49821e-05
-0.000822908
-0.00167316
-0.00252367
-0.00336831
-0.00420021
-0.0050172
-0.00581405
-0.00658205
-0.00731742
-0.00801604
-0.00867201
-0.00927833
-0.00983057
-0.010326
-0.0107597
-0.0111281
-0.0114255
-0.0116522
-0.0118062
-0.0118849
-0.0118885
-0.0118151
-0.0116666
-0.0114438
-0.0111481
-0.0107815
-0.0103462
-0.00984557
-0.00928231
-0.00865737
-0.00799216
0.00621566
0.00552175
0.00482362
0.00410336
0.00336292
0.00260469
0.00182969
0.00104382
0.000246129
-0.000556904
-0.00136166
-0.00216592
-0.00296393
-0.00374913
-0.00451948
-0.00526965
-0.00599173
-0.00668204
-0.00733635
-0.00794927
-0.00851436
-0.00902706
-0.00948496
-0.0098833
-0.0102189