/*--------------------------------*- C++ -*----------------------------------*\
| =========                 |                                                 |
| \\      /  F ield         | OpenFOAM: The Open Source CFD Toolbox           |
|  \\    /   O peration     | Version:  3.0.1                                 |
|   \\  /    A nd           | Web:      www.OpenFOAM.org                      |
|    \\/     M anipulation  |                                                 |
\*---------------------------------------------------------------------------*/
FoamFile
{
    version     2.0;
    format      ascii;
    class       surfaceScalarField;
    location    "500";
    object      phi;
}
// * * * * * * * * * * * * * * * * * * * * * * * * * * * * * * * * * * * * * //

dimensions      [0 3 -1 0 0 0 0];

internalField   nonuniform List<scalar> 
115520
(
0.0143454
-0.0017695
-0.0125759
0.0153299
-0.000984399
0.0153227
7.17017e-06
0.0147912
0.000531524
0.014011
0.000780199
0.0131466
0.000864489
0.012387
0.000759664
0.0116869
0.000700064
0.0111546
0.000532328
0.010788
0.000366672
0.0105359
0.00025214
0.0104083
0.000127563
0.010406
2.36275e-06
0.0104684
-6.23589e-05
0.0105742
-0.000105832
0.0107237
-0.000149513
0.0109033
-0.000179527
0.0110927
-0.000189453
0.0112826
-0.000189849
0.0114735
-0.000190907
0.0116686
-0.000195039
0.0118574
-0.000188811
0.0120358
-0.000178408
0.0122008
-0.000164979
0.012362
-0.000161208
0.0125144
-0.000152369
0.0126553
-0.000140928
0.0127832
-0.000127888
0.0128967
-0.000113449
0.0130033
-0.000106624
0.0130988
-9.54477e-05
0.0131819
-8.31077e-05
0.0132522
-7.02571e-05
0.0133092
-5.70203e-05
0.0133425
-3.33556e-05
0.0133241
1.84082e-05
0.0132795
4.4662e-05
0.0132368
4.27251e-05
0.0132257
1.11014e-05
-4.30741e-05
0.0132687
0.00942403
-0.0028879
-0.00830562
0.010424
-0.00198439
0.0113723
-0.0009411
0.012219
-0.000315096
0.0128969
0.000102304
0.0133732
0.000388216
0.0136888
0.000444052
0.0138396
0.000549325
0.0139058
0.00046607
0.0139186
0.000353889
0.0138745
0.0002963
0.013823
0.000179029
0.0138056
1.98241e-05
0.0137924
-4.91768e-05
0.0137918
-0.000105189
0.0138352
-0.000192902
0.0139067
-0.000251042
0.0139902
-0.000272933
0.0140835
-0.00028307
0.0141969
-0.000304382
0.0143269
-0.000324997
0.0144577
-0.000319642
0.0145871
-0.000307793
0.0147125
-0.000290351
0.0148483
-0.000297029
0.0149786
-0.000282582
0.015101
-0.000263334
0.0152142
-0.000241125
0.0153169
-0.000216174
0.0154199
-0.000209565
0.015512
-0.000187518
0.0155923
-0.000163393
0.0156599
-0.000137841
0.0157137
-0.000110846
0.0157572
-7.68318e-05
0.0157858
-1.01779e-05
0.0158038
2.66437e-05
0.0158174
2.90673e-05
0.0158334
-4.81353e-06
-7.57875e-05
0.0158661
0.00880752
-0.00392483
-0.00777058
0.0097403
-0.00291716
0.0105894
-0.00179022
0.0113148
-0.00104046
0.0119601
-0.000543008
0.0125279
-0.000179547
0.0129935
-2.15507e-05
0.0133821
0.000160719
0.0136828
0.000165443
0.0139148
0.000121837
0.0140869
0.000124236
0.0142196
4.63648e-05
0.01434
-0.000100583
0.0144423
-0.000151479
0.0145364
-0.0001993
0.0146485
-0.000304942
0.014772
-0.000374522
0.0148985
-0.000399418
0.0150284
-0.000413005
0.0151708
-0.000446811
0.0153227
-0.000476874
0.015473
-0.000469856
0.0156205
-0.000455289
0.0157637
-0.000433598
0.0159127
-0.000446043
0.0160548
-0.000424615
0.0161885
-0.000397043
0.0163132
-0.000365794
0.0164279
-0.000330926
0.0165395
-0.000321184
0.0166395
-0.000287474
0.0167272
-0.000251135
0.0168023
-0.000212862
0.0168639
-0.000172494
0.0169143
-0.000127192
0.0169501
-4.5939e-05
0.016972
4.66066e-06
0.0169846
1.64849e-05
0.0169892
-9.38617e-06
-7.23541e-05
0.0169858
0.00800886
-0.00481274
-0.00712096
0.00887376
-0.00378204
0.00971659
-0.00263304
0.0104833
-0.00180718
0.0111807
-0.00124035
0.0118071
-0.000805983
0.0123509
-0.000565332
0.0128378
-0.000326158
0.013255
-0.000251751
0.0136143
-0.000237465
0.0139225
-0.000183953
0.0141867
-0.00021782
0.0144223
-0.000336123
0.0146299
-0.000359131
0.0148155
-0.000384919
0.0149974
-0.000486807
0.0151758
-0.000552874
0.0153477
-0.000571302
0.0155152
-0.000580561
0.015687
-0.000618555
0.0158621
-0.000652006
0.0160329
-0.000640616
0.0161988
-0.000621185
0.016359
-0.00059381
0.016522
-0.00060908
0.0166775
-0.000580035
0.016824
-0.000543538
0.0169608
-0.000502678
0.0170874
-0.000457469
0.0172096
-0.000443415
0.01732
-0.000397862
0.017418
-0.000349069
0.0175029
-0.000297835
0.0175745
-0.000244007
0.0176351
-0.000187876
0.0176828
-9.36002e-05
0.0177165
-2.90582e-05
0.0177379
-4.92987e-06
0.0177481
-1.95422e-05
-7.10281e-05
0.0177468
0.00758562
-0.00563227
-0.00676609
0.00840056
-0.00459699
0.00921857
-0.00345105
0.00999453
-0.00258314
0.010727
-0.00197282
0.0114064
-0.00148536
0.0120103
-0.00116927
0.012567
-0.0008828
0.0130571
-0.000741865
0.0134911
-0.00067151
0.0138787
-0.000571529
0.0142209
-0.000560032
0.0145271
-0.000642234
0.0148029
-0.00063497
0.0150525
-0.000634551
0.015288
-0.000722283
0.0155121
-0.000776954
0.0157243
-0.000783509
0.0159271
-0.000783293
0.0161276
-0.00081905
0.0163263
-0.000850713
0.0165179
-0.000832263
0.0167025
-0.000805737
0.0168796
-0.000770961
0.0170563
-0.000785775
0.0172243
-0.000747984
0.0173824
-0.000701654
0.0175302
-0.000650432
0.017667
-0.00059431
0.0177977
-0.000574092
0.017916
-0.000516141
0.0180213
-0.000454379
0.0181132
-0.000389795
0.0181915
-0.000322275
0.0182583
-0.000254614
0.0183118
-0.000147129
0.0183508
-6.80852e-05
0.0183757
-2.98484e-05
0.0183866
-3.03721e-05
-6.72297e-05
0.0183828
0.00727733
-0.00640915
-0.00650046
0.00805792
-0.00537758
0.0088504
-0.00424353
0.00962099
-0.00335373
0.0103683
-0.00272012
0.0110816
-0.00219862
0.0117337
-0.00182141
0.0123493
-0.00149838
0.0129039
-0.00129646
0.013405
-0.00117265
0.0138627
-0.00102918
0.0142738
-0.000971171
0.0146435
-0.00101194
0.0149806
-0.000972079
0.0152881
-0.000941993
0.0155734
-0.0010076
0.015841
-0.00104453
0.0160921
-0.00103463
0.0163292
-0.00102038
0.0165583
-0.00104815
0.0167809
-0.00107325
0.0169936
-0.00104497
0.0171968
-0.00100895
0.0173906
-0.000964731
0.0175809
-0.000976057
0.0177611
-0.000928212
0.0179304
-0.000870978
0.0180884
-0.000808432
0.0182346
-0.000740534
0.0183732
-0.00071266
0.0184988
-0.000641681
0.0186108
-0.000566369
0.0187088
-0.000487885
0.0187927
-0.000406152
0.0188643
-0.000326235
0.0189223
-0.000205055
0.0189651
-0.00011094
0.0189929
-5.76006e-05
0.0190054
-4.28653e-05
-6.40879e-05
0.0190022
0.00706687
-0.00716404
-0.00631198
0.0078275
-0.00613821
0.00860164
-0.00501766
0.00936343
-0.00411552
0.0101134
-0.00347005
0.0108429
-0.00292817
0.0115253
-0.00250385
0.0121825
-0.0021555
0.0127872
-0.00190115
0.0133437
-0.0017292
0.0138614
-0.00154685
0.0143336
-0.00144335
0.0147614
-0.00143979
0.0151556
-0.00136627
0.0155179
-0.0013043
0.015852
-0.00134164
0.0161632
-0.00135573
0.0164541
-0.00132552
0.016727
-0.00129327
0.0169866
-0.00130781
0.0172352
-0.0013218
0.0174711
-0.00128085
0.0176949
-0.00123275
0.017907
-0.00117681
0.0181123
-0.00118143
0.0183061
-0.00112195
0.0184876
-0.00105248
0.0186566
-0.000977415
0.0188127
-0.000896664
0.0189595
-0.000859458
0.0190924
-0.000774621
0.0192111
-0.000684995
0.0193151
-0.000591885
0.0194042
-0.000495246
0.0194801
-0.000402117
0.0195415
-0.000266475
0.0195871
-0.000156546
0.0196167
-8.71706e-05
0.0196299
-5.61207e-05
-6.06769e-05
0.0196265
0.00692018
-0.0079099
-0.00617432
0.00767197
-0.00689001
0.00843639
-0.00578209
0.0091928
-0.00487193
0.00994294
-0.00422018
0.0106807
-0.00366597
0.0113822
-0.00320532
0.0120671
-0.00284042
0.0127086
-0.00254259
0.0133085
-0.00232911
0.0138751
-0.0021135
0.0143994
-0.00196765
0.0148792
-0.00191956
0.0153257
-0.00181279
0.0157396
-0.00171818
0.0161209
-0.001723
0.0164757
-0.00171043
0.0168071
-0.00165694
0.0171172
-0.00160338
0.0174094
-0.00160004
0.0176863
-0.00159865
0.0179476
-0.00154221
0.0181943
-0.00147943
0.0184269
-0.00140935
0.0186494
-0.00140393
0.0188584
-0.00133102
0.0190537
-0.00124778
0.0192351
-0.00115878
0.0194023
-0.00106388
0.0195584
-0.00101553
0.0196996
-0.000915832
0.0198256
-0.000810956
0.019936
-0.000702326
0.0200307
-0.000589911
0.0201111
-0.000482498
0.0201761
-0.000331501
0.0202245
-0.000204941
0.020256
-0.000118638
0.0202702
-7.03672e-05
-5.74095e-05
0.0202669
0.00682038
-0.0086558
-0.00607448
0.00757165
-0.00764128
0.00833389
-0.00654433
0.00908998
-0.00562803
0.00984221
-0.00497241
0.0105863
-0.00441011
0.0113016
-0.00392054
0.012006
-0.00354488
0.0126747
-0.00321121
0.0133081
-0.00296251
0.0139137
-0.00271912
0.0144811
-0.00253507
0.0150057
-0.00244415
0.0154986
-0.0023057
0.0159594
-0.002179
0.0163854
-0.00214894
0.0167822
-0.00210727
0.0171537
-0.00202842
0.0175014
-0.00195105
0.0178273
-0.00192596
0.0181341
-0.00190545
0.0184228
-0.00183094
0.0186944
-0.00175097
0.0189494
-0.00166436
0.019191
-0.00164557
0.0194173
-0.00155732
0.0196281
-0.00145861
0.0198235
-0.00135411
0.0200032
-0.0012436
0.0201698
-0.00118215
0.0203204
-0.00106644
0.0204547
-0.00094522
0.0205724
-0.000820023
0.0206733
-0.000690824
0.0207588
-0.000567931
0.0208278
-0.00040057
0.0208794
-0.000256468
0.020913
-0.000152294
0.0209285
-8.58538e-05
-5.44739e-05
0.0209256
0.00675611
-0.00940829
-0.00600363
0.00751313
-0.00839831
0.00827935
-0.00731055
0.00904011
-0.00638879
0.0097978
-0.0057301
0.0105494
-0.00516172
0.011277
-0.00464814
0.0119972
-0.00426509
0.0126874
-0.00390144
0.0133477
-0.00362274
0.0139847
-0.00335612
0.0145877
-0.00313811
0.0151506
-0.00300704
0.015684
-0.00283906
0.0161866
-0.00268164
0.0166535
-0.00261586
0.01709
-0.00254379
0.0175
-0.00243838
0.0178845
-0.0023355
0.0182442
-0.00228567
0.0185817
-0.00224295
0.0188988
-0.00214811
0.0191965
-0.00204866
0.0194755
-0.0019433
0.0197379
-0.00190796
0.019983
-0.00180244
0.0202109
-0.00168651
0.0204217
-0.00156486
0.0206152
-0.0014372
0.0207937
-0.00136061
0.0209548
-0.00122758
0.0210984
-0.00108881
0.0212243
-0.000945886
0.0213323
-0.000798777
0.0214234
-0.00065911
0.0214972
-0.000474286
0.0215523
-0.000311648
0.0215886
-0.000188595
0.0216058
-0.000102985
-5.22124e-05
0.0216035
0.00671981
-0.0101723
-0.00595577
0.0074875
-0.009166
0.00826267
-0.00808572
0.00903249
-0.00715862
0.00979925
-0.00649686
0.0105607
-0.00592315
0.0113013
-0.00538873
0.0120362
-0.00500004
0.0127454
-0.00461062
0.0134286
-0.00430592
0.014092
-0.00401955
0.0147252
-0.0037713
0.0153212
-0.00360302
0.0158898
-0.00340772
0.0164295
-0.00322132
0.0169336
-0.00311999
0.017407
-0.00301712
0.0178532
-0.0028846
0.0182729
-0.00275519
0.0186657
-0.00267845
0.0190338
-0.00261109
0.0193797
-0.00249404
0.0197042
-0.00237315
0.020008
-0.00224702
0.0202922
-0.00219222
0.0205573
-0.00206757
0.0208035
-0.00193268
0.0210309
-0.00179221
0.0212395
-0.00164579
0.0214309
-0.001552
0.0216036
-0.00140029
0.0217574
-0.00124268
0.0218923
-0.00108077
0.0220081
-0.000914543
0.0221057
-0.000756733
0.0221847
-0.000553264
0.0222441
-0.000371019
0.0222835
-0.000228012
0.0223027
-0.000122167
-5.096e-05
0.0223014
0.00670624
-0.0109519
-0.0059267
0.00748854
-0.0099483
0.00827675
-0.00887393
0.00905945
-0.00794132
0.00983867
-0.00727608
0.0106126
-0.00669713
0.0113678
-0.00614392
0.012118
-0.00575026
0.0128454
-0.005338
0.0135497
-0.00501018
0.0142366
-0.00470651
0.0148964
-0.00443106
0.0155217
-0.00422833
0.0161217
-0.00400773
0.0166945
-0.00379407
0.0172325
-0.00365797
0.0177398
-0.00352445
0.0182199
-0.00336473
0.018673
-0.00320824
0.0190976
-0.00310311
0.0194958
-0.00300927
0.0198702
-0.0028685
0.0202216
-0.0027245
0.0205504
-0.00257586
0.0208572
-0.00249902
0.0211431
-0.00235347
0.0214084
-0.00219795
0.0216532
-0.00203702
0.0218777
-0.00187027
0.022083
-0.00175724
0.0222681
-0.00158545
0.0224331
-0.00140763
0.0225777
-0.00122543
0.022702
-0.0010388
0.0228067
-0.000861425
0.0228915
-0.000638063
0.0229555
-0.000435074
0.0229985
-0.000270975
0.0230201
-0.000143771
-5.10211e-05
0.0230202
0.00671166
-0.0117502
-0.00591335
0.00751184
-0.0107485
0.00831652
-0.00967862
0.00911539
-0.00874019
0.00991018
-0.00807087
0.0106994
-0.00748637
0.0114712
-0.00691567
0.012238
-0.00651706
0.0129839
-0.00608395
0.0137088
-0.00573503
0.0144179
-0.00541564
0.0151022
-0.00511532
0.0157544
-0.00488053
0.0163829
-0.00463628
0.0169857
-0.00439689
0.0175548
-0.00422706
0.0180937
-0.00406334
0.0186055
-0.00387655
0.0190901
-0.00369277
0.0195453
-0.00355828
0.0199726
-0.00343661
0.020375
-0.00327092
0.020753
-0.00310244
0.0211069
-0.00292978
0.0214365
-0.00282866
0.0217436
-0.00266059
0.0220285
-0.00248286
0.0222914
-0.0022999
0.0225324
-0.00211124
0.0227522
-0.00197701
0.0229504
-0.0017837
0.0231271
-0.0015843
0.0232821
-0.00138045
0.0234154
-0.0011721
0.0235277
-0.000973705
0.0236188
-0.000729155
0.023688
-0.000504231
0.0237349
-0.000317851
0.0237592
-0.000168107
-5.26509e-05
0.0237608
0.00673332
-0.01257
-0.00591346
0.00755422
-0.0115694
0.00837832
-0.0105027
0.00919622
-0.00955809
0.0100094
-0.00888403
0.0108165
-0.00829347
0.0116069
-0.00770609
0.012392
-0.00730214
0.0131575
-0.00684949
0.0139033
-0.00648079
0.0146343
-0.00614664
0.0153421
-0.00582314
0.0160198
-0.00555822
0.0166751
-0.00529158
0.0173059
-0.00502772
0.0179041
-0.00482523
0.0184726
-0.00463185
0.0190143
-0.00441824
0.0195286
-0.00420714
0.020013
-0.00404267
0.0204686
-0.00389217
0.0208982
-0.0037006
0.0213023
-0.0035065
0.021681
-0.00330853
0.0220336
-0.00318118
0.0223621
-0.00298911
0.0226669
-0.00278768
0.0229482
-0.00258119
0.0232061
-0.00236914
0.0234409
-0.00221183
0.0236528
-0.00199557
0.0238417
-0.00177319
0.0240075
-0.00154631
0.0241503
-0.00131489
0.0242706
-0.001094
0.0243684
-0.000826923
0.024443
-0.000578824
0.0244941
-0.000368928
0.0245214
-0.00019542
-5.60411e-05
0.0245248
0.00676919
-0.0134139
-0.00592533
0.0076133
-0.0124135
0.00845944
-0.0113489
0.00929894
-0.0103976
0.010133
-0.00971809
0.0109604
-0.00912086
0.0117715
-0.00851726
0.0125767
-0.00810733
0.0133632
-0.00763595
0.0141307
-0.00724833
0.014884
-0.00689986
0.0156152
-0.00655433
0.0163177
-0.0062608
0.0169988
-0.00597264
0.0176563
-0.00568523
0.0182822
-0.00545107
0.0188789
-0.00522857
0.019449
-0.00498838
0.0199919
-0.00474998
0.0205043
-0.00455514
0.0209873
-0.00437509
0.0214435
-0.00415683
0.0218731
-0.00393613
0.0222763
-0.00371173
0.0226516
-0.00355649
0.0230016
-0.00333905
0.0233264
-0.00311254
0.0236264
-0.0028811
0.0239014
-0.00264421
0.0241516
-0.00246204
0.0243775
-0.00222141
0.0245789
-0.00197465
0.024756
-0.00172337
0.0249086
-0.0014675
0.0250372
-0.00122262
0.025142
-0.000931661
0.0252223
-0.000659109
0.0252777
-0.000424423
0.0253082
-0.000225882
-6.13229e-05
0.0253135
0.00681773
-0.014284
-0.00594763
0.00768733
-0.0132831
0.00855787
-0.0122194
0.00942131
-0.011261
0.0102786
-0.0105754
0.0111285
-0.0099708
0.0119625
-0.0093512
0.0127897
-0.00893454
0.0135986
-0.00844489
0.0143891
-0.00803879
0.0151653
-0.0076761
0.0159203
-0.00730929
0.0166477
-0.00698827
0.0173542
-0.00667912
0.0180377
-0.00636877
0.0186904
-0.00610375
0.0193144
-0.00585257
0.019912
-0.00558598
0.0204823
-0.00532029
0.021022
-0.00509482
0.0215316
-0.00488464
0.0220137
-0.004639
0.0224684
-0.00439084
0.0228957
-0.00413902
0.0232937
-0.00395443
0.023665
-0.00371037
0.0240099
-0.00345746
0.0243285
-0.00319972
0.0246209
-0.00293659
0.0248867
-0.00272788
0.0251268
-0.00246148
0.0253411
-0.00218895
0.0255296
-0.00191187
0.0256923
-0.00163019
0.0258295
-0.00135983
0.0259415
-0.00104359
0.0260276
-0.000745271
0.0260877
-0.000484483
0.0261214
-0.000259606
-6.85673e-05
0.0261287
0.00687778
-0.0151825
-0.00597934
0.00777498
-0.0141803
0.00867211
-0.0131165
0.00956166
-0.0121506
0.0104443
-0.011458
0.011319
-0.0108454
0.0121776
-0.0102099
0.0130287
-0.00978564
0.0138617
-0.00927791
0.0146765
-0.00885352
0.0154768
-0.00847643
0.0162563
-0.00808874
0.017009
-0.00774102
0.017741
-0.00741113
0.0184504
-0.00707817
0.0191296
-0.00678292
0.0197804
-0.00650336
0.0204048
-0.00621041
0.0210019
-0.00591739
0.0215682
-0.00566108
0.0221038
-0.00542028
0.0226114
-0.00514662
0.0230908
-0.00487022
0.0235418
-0.00459005
0.0239623
-0.00437485
0.0243549
-0.00410297
0.0247198
-0.00382243
0.0250572
-0.00353708
0.025367
-0.00324639
0.0256486
-0.00300952
0.0259031
-0.00271598
0.0261305
-0.00241629
0.0263306
-0.00211202
0.0265036
-0.00180312
0.0266495
-0.0015058
0.0267688
-0.00116287
0.026861
-0.000837434
0.0269257
-0.0005492
0.0269627
-0.000296645
-7.77936e-05
0.026972
0.00694844
-0.0161112
-0.00601967
0.00787525
-0.0151071
0.00880103
-0.0140423
0.00971875
-0.0130683
0.0106289
-0.0123681
0.0115302
-0.0117468
0.0124155
-0.0110952
0.0132924
-0.0106625
0.0141511
-0.0101367
0.0149916
-0.00969397
0.0158172
-0.0093021
0.0166222
-0.00889367
0.0174009
-0.00851976
0.0181589
-0.00816912
0.0188944
-0.00781365
0.0196001
-0.0074886
0.0202775
-0.0071808
0.0209285
-0.00686144
0.0215521
-0.00654093
0.0221445
-0.00625354
0.0227059
-0.00598168
0.0232387
-0.00567936
0.0237424
-0.00537397
0.024217
-0.00506459
0.0246598
-0.00481763
0.0250736
-0.0045168
0.0254586
-0.00420743
0.0258147
-0.00389322
0.026142
-0.00357365
0.0264396
-0.00330711
0.0267086
-0.00298503
0.0269491
-0.0026568
0.0271611
-0.00232395
0.0273444
-0.00198643
0.0274992
-0.00166065
0.027626
-0.0012896
0.0277242
-0.000935672
0.0277936
-0.000618614
0.027834
-0.00033701
-8.89767e-05
0.0278452
0.00702902
-0.0170722
-0.00606802
0.00798738
-0.0160655
0.0089438
-0.0149987
0.00989164
-0.0140161
0.0108312
-0.0133076
0.0117612
-0.0126768
0.012675
-0.012009
0.0135794
-0.0115669
0.0144656
-0.0110229
0.0153333
-0.0105616
0.0161857
-0.0101545
0.0170172
-0.00972524
0.0178229
-0.0093254
0.0186076
-0.00895381
0.0193696
-0.00857572
0.0201021
-0.00822109
0.0208064
-0.00788507
0.021484
-0.00753909
0.022134
-0.00719085
0.0227525
-0.0068721
0.0233395
-0.00656871
0.0238973
-0.00623709
0.0244253
-0.00590195
0.0249232
-0.0055625
0.0253883
-0.00528272
0.0258233
-0.00495184
0.0262283
-0.00461247
0.0266033
-0.00426816
0.0269481
-0.00391843
0.0272617
-0.00362073
0.0275454
-0.00326877
0.0277992
-0.0029106
0.028023
-0.00254776
0.0282168
-0.00218021
0.0283806
-0.00182447
0.0285149
-0.00142385
0.0286192
-0.00104002
0.0286934
-0.000692732
0.028737
-0.000380672
-0.000102056
0.0287501
0.00711901
-0.0180674
-0.00612389
0.00811081
-0.0170573
0.0090998
-0.0159877
0.0100797
-0.014996
0.0110505
-0.0142785
0.0120112
-0.0136374
0.0129553
-0.0129531
0.0138891
-0.0125007
0.0148044
-0.0119382
0.0157009
-0.0114581
0.0165814
-0.011035
0.0174409
-0.0105847
0.0182745
-0.010159
0.0190868
-0.00976611
0.0198761
-0.0093651
0.020636
-0.00898096
0.0213675
-0.00861657
0.0220721
-0.00824363
0.0227485
-0.00786729
0.0233932
-0.00751684
0.024006
-0.00718142
0.0245887
-0.00681982
0.0251409
-0.00645416
0.0256622
-0.00608377
0.0261496
-0.00577015
0.0266059
-0.00540814
0.027031
-0.00503761
0.0274248
-0.00466197
0.0277872
-0.0042808
0.028117
-0.00395051
0.0284155
-0.00356728
0.0286827
-0.00317779
0.0289185
-0.00278355
0.0291228
-0.00238454
0.0292957
-0.00199733
0.0294375
-0.00156566
0.029548
-0.00115049
0.0296268
-0.000771532
0.0296737
-0.000427578
-0.000116943
0.0296886
0.00721802
-0.0190985
-0.00618691
0.00824513
-0.0180844
0.00926859
-0.0170112
0.0102824
-0.0160099
0.0112865
-0.0152826
0.0122796
-0.0146305
0.0132558
-0.0139294
0.0142208
-0.0134657
0.0151669
-0.0128843
0.0160937
-0.0123849
0.0170039
-0.0119452
0.0178927
-0.0114735
0.0187555
-0.0110218
0.0195964
-0.0106071
0.020414
-0.0101827
0.021202
-0.00976895
0.0219613
-0.0093759
0.0226932
-0.00897555
0.0233966
-0.00857063
0.0240678
-0.00818804
0.0247064
-0.00782004
0.0253143
-0.00742772
0.0258909
-0.00703073
0.0264356
-0.0066285
0.0269455
-0.00628006
0.0274232
-0.0058858
0.0278685
-0.00548295
0.0282813
-0.00507476
0.0286614
-0.00466085
0.0290074
-0.00429658
0.0293208
-0.0038807
0.0296015
-0.00345847
0.0298494
-0.00303139
0.0300643
-0.00259947
0.0302463
-0.00217928
0.0303957
-0.00171506
0.0305122
-0.00126708
0.0305957
-0.000854978
0.0306458
-0.000477656
-0.000133532
0.0306624
0.00732577
-0.0201674
-0.0062568
0.00839006
-0.0191487
0.00944988
-0.018071
0.0104995
-0.0170595
0.0115387
-0.0163217
0.0125661
-0.015658
0.0135763
-0.0149396
0.0145742
-0.0144636
0.0155528
-0.0138629
0.0165117
-0.0133438
0.0174531
-0.0128866
0.0183725
-0.0123929
0.0192657
-0.011915
0.0201365
-0.0114779
0.0209834
-0.0110295
0.0218003
-0.0105859
0.0225883
-0.0101638
0.0233482
-0.00973548
0.024079
-0.0093014
0.0247771
-0.00888616
0.025442
-0.00848495
0.0260754
-0.00806111
0.0266766
-0.00763192
0.027245
-0.00719692
0.0277776
-0.00681265
0.0282768
-0.00638503
0.0287425
-0.00594866
0.0291745
-0.00550668
0.0295724
-0.00505875
0.0299349
-0.00465908
0.0302633
-0.00420915
0.0305576
-0.00375276
0.0308176
-0.00329139
0.0310432
-0.00282508
0.0312343
-0.00237038
0.0313913
-0.00187208
0.031514
-0.00138978
0.0316021
-0.00094302
0.0316552
-0.000530819
-0.000151699
0.0316734
0.00744205
-0.0212761
-0.00633335
0.00854541
-0.020252
0.00964349
-0.0191691
0.0107308
-0.0181469
0.011807
-0.0173979
0.0128706
-0.0167216
0.0139165
-0.0159855
0.0149492
-0.0154963
0.015962
-0.0148757
0.0169545
-0.0143362
0.0179287
-0.0138608
0.0188803
-0.0133445
0.0198054
-0.0128401
0.0207072
-0.0123797
0.0215845
-0.0119068
0.0224315
-0.011433
0.0232489
-0.0109812
0.0240376
-0.0105242
0.0247965
-0.0100603
0.0255221
-0.00961178
0.0262138
-0.00917666
0.0268732
-0.00872043
0.0274993
-0.00825811
0.0280918
-0.00778935
0.0286474
-0.00736825
0.0291684
-0.0069061
0.0296548
-0.006435
0.0301061
-0.00595795
0.030522
-0.00547468
0.0309011
-0.00503821
0.0312448
-0.0045528
0.0315528
-0.0040608
0.0318251
-0.00356365
0.0320614
-0.00306145
0.0322617
-0.00257067
0.0324264
-0.00203674
0.0325552
-0.00151857
0.0326478
-0.0010356
0.0327039
-0.000586974
-0.000171312
0.0327235
0.00756674
-0.0224265
-0.0064164
0.00871108
-0.0213964
0.00984934
-0.0203074
0.0109763
-0.0192738
0.0120913
-0.0185128
0.013193
-0.0178233
0.0142764
-0.017069
0.0153457
-0.0165655
0.0163945
-0.0159245
0.0174223
-0.015364
0.0184309
-0.0148693
0.0194162
-0.0143299
0.0203745
-0.0137984
0.0213088
-0.013314
0.0222177
-0.0128157
0.0230959
-0.0123111
0.0239438
-0.0118291
0.0247622
-0.0113427
0.02555
-0.0108481
0.0263039
-0.0103656
0.027023
-0.00989581
0.0277088
-0.00940623
0.0283605
-0.00890979
0.0289774
-0.00840623
0.0295564
-0.00794724
0.0300996
-0.00744937
0.0306069
-0.00694229
0.0310778
-0.00642886
0.031512
-0.00590888
0.031908
-0.00543419
0.0322671
-0.00491186
0.032589
-0.00438274
0.0328737
-0.00384831
0.0331209
-0.00330867
0.0333305
-0.00278022
0.0335028
-0.00220907
0.0336377
-0.00165344
0.0337347
-0.00113268
0.0337938
-0.000646022
-0.000192229
0.0338147
0.00769979
-0.0236204
-0.00650586
0.00888704
-0.0225836
0.0100674
-0.0214877
0.0112359
-0.0204423
0.0123916
-0.0196686
0.0135333
-0.018965
0.0146562
-0.0181919
0.0157638
-0.0176732
0.0168504
-0.0170111
0.0179152
-0.0164289
0.0189599
-0.015914
0.0199806
-0.0153506
0.0209736
-0.0147914
0.0219418
-0.0142822
0.0228836
-0.0137575
0.0237941
-0.0132216
0.0246736
-0.0127086
0.0255228
-0.0121918
0.0263404
-0.0116657
0.0271233
-0.0111485
0.0278706
-0.0106431
0.0285836
-0.0101192
0.0292614
-0.00958757
0.0299032
-0.00904808
0.0305061
-0.00855011
0.031072
-0.00801528
0.0316006
-0.0074709
0.0320915
-0.00691974
0.0325443
-0.00636166
0.0329574
-0.00584731
0.0333321
-0.00528655
0.0336681
-0.0047188
0.0339653
-0.00414551
0.0342235
-0.00356686
0.0344424
-0.00299912
0.0346224
-0.00238909
0.0347634
-0.00179437
0.0348649
-0.00123418
0.0349267
-0.000707865
-0.000214307
0.0349488
0.00784117
-0.0248599
-0.00660167
0.00907332
-0.0238158
0.0102978
-0.0227122
0.0115098
-0.0216542
0.0127082
-0.0208671
0.0138918
-0.0201485
0.015056
-0.019356
0.0162039
-0.0188211
0.01733
-0.0181372
0.0184337
-0.0175325
0.0195161
-0.0169964
0.0205737
-0.0164082
0.0216031
-0.0158207
0.0226065
-0.0152857
0.0235827
-0.0147337
0.0245269
-0.0141657
0.0254392
-0.0136209
0.0263202
-0.0130728
0.0271687
-0.0125142
0.0279815
-0.0119613
0.0287578
-0.0114194
0.0294987
-0.0108601
0.0302032
-0.0102921
0.0308707
-0.00971553
0.031498
-0.00917742
0.0320871
-0.00860432
0.0326375
-0.0080213
0.0331487
-0.007431
0.0336204
-0.00683338
0.034051
-0.00627788
0.0344416
-0.00567715
0.034792
-0.00506918
0.0351019
-0.00445545
0.0353712
-0.00383615
0.0355996
-0.00322746
0.0357873
-0.00257688
0.0359343
-0.00194138
0.0360402
-0.00134007
0.0361048
-0.000772405
-0.000237402
0.0361279
0.00799093
-0.026147
-0.00670381
0.00927001
-0.0250949
0.0105406
-0.0239829
0.0117981
-0.0229117
0.0130413
-0.0221103
0.0142687
-0.0213759
0.0154761
-0.0205634
0.0166662
-0.0200112
0.0178337
-0.0193048
0.0189779
-0.0186767
0.0200999
-0.0181184
0.0211962
-0.0175045
0.0222634
-0.0168879
0.0233037
-0.016326
0.0243158
-0.0157458
0.0252949
-0.0151449
0.0262413
-0.0145673
0.0271553
-0.0139869
0.0280358
-0.0133946
0.0288796
-0.0128051
0.0296858
-0.0122257
0.0304555
-0.0116297
0.0311876
-0.0110242
0.0318813
-0.0104093
0.0325337
-0.00982982
0.0331465
-0.00921708
0.0337192
-0.00859399
0.0342513
-0.00796311
0.0347424
-0.00732444
0.0351907
-0.00672627
0.0355976
-0.00608397
0.0359625
-0.00543416
0.0362854
-0.00477832
0.036566
-0.0041167
0.0368038
-0.00346534
0.0369995
-0.00277248
0.0371525
-0.00209448
0.0372628
-0.0014503
0.0373299
-0.00083955
-0.000261369
0.0373539
0.00814914
-0.0274839
-0.00681231
0.00947724
-0.026423
0.0107961
-0.0253017
0.0121011
-0.0242167
0.013391
-0.0234002
0.0146643
-0.0226493
0.0159169
-0.021816
0.0171511
-0.0212454
0.018362
-0.0205157
0.0195487
-0.0198633
0.020712
-0.0192818
0.0218487
-0.0186412
0.0229554
-0.0179946
0.0240342
-0.0174047
0.0250836
-0.0167952
0.0260992
-0.0161605
0.027081
-0.0155491
0.0280293
-0.0149352
0.0289429
-0.0143082
0.0298187
-0.013681
0.030656
-0.0130629
0.0314553
-0.012429
0.0322158
-0.0117847
0.0329366
-0.0111301
0.0336148
-0.010508
0.0342519
-0.0098542
0.0348475
-0.00918957
0.035401
-0.00851658
0.0359118
-0.00783529
0.0363785
-0.00719288
0.0368018
-0.00650736
0.0371817
-0.00581403
0.0375178
-0.00511438
0.0378098
-0.00440869
0.0380573
-0.00371292
0.0382608
-0.00297598
0.03842
-0.00225368
0.0385346
-0.00156485
0.0386043
-0.000909214
-0.000286066
0.038629
0.00831592
-0.0288726
-0.00692722
0.00969518
-0.0278022
0.0110644
-0.0266709
0.012419
-0.0255713
0.0137578
-0.0247389
0.0150791
-0.0239705
0.0163789
-0.0231158
0.0176592
-0.0225257
0.0189154
-0.0217719
0.0201464
-0.0210943
0.0213529
-0.0204883
0.0225318
-0.0198201
0.0236798
-0.0191427
0.0247987
-0.0185236
0.025887
-0.0178835
0.0269406
-0.017214
0.0279592
-0.0165678
0.0289432
-0.0159191
0.0298911
-0.0152562
0.0308003
-0.0145901
0.0316695
-0.0139322
0.0324996
-0.0132591
0.0332894
-0.0125746
0.0340382
-0.0118789
0.0347429
-0.0112128
0.0354051
-0.0105164
0.0360242
-0.00980867
0.0365996
-0.00909198
0.0371308
-0.00836646
0.0376161
-0.00767817
0.0380564
-0.00694772
0.0384515
-0.00620912
0.038801
-0.00546388
0.0391047
-0.00471235
0.0393621
-0.00397033
0.0395736
-0.00318748
0.039739
-0.00241903
0.0398578
-0.00168369
0.0399299
-0.000981312
-0.00031135
0.0399552
0.0084914
-0.0303154
-0.0070486
0.00992405
-0.0292349
0.0113458
-0.0280927
0.0127523
-0.0269778
0.0141421
-0.0261287
0.0155134
-0.0253419
0.0168625
-0.0244649
0.0181911
-0.0238543
0.0194945
-0.0230753
0.0207718
-0.0223716
0.0220235
-0.02174
0.0232464
-0.021043
0.0244375
-0.0203338
0.0255982
-0.0196843
0.0267271
-0.0190124
0.0278202
-0.0183071
0.0288772
-0.0176248
0.0298982
-0.0169401
0.0308819
-0.0162399
0.0318255
-0.0155337
0.032728
-0.0148347
0.0335898
-0.0141209
0.03441
-0.0133948
0.0351876
-0.0126565
0.0359198
-0.011945
0.0366078
-0.0112044
0.0372511
-0.010452
0.0378491
-0.00968995
0.0384012
-0.00891849
0.0389056
-0.00818263
0.0393634
-0.00740548
0.0397741
-0.00661981
0.0401373
-0.00582715
0.0404529
-0.0050279
0.0407203
-0.00423776
0.0409399
-0.00340709
0.0411115
-0.00259057
0.0412346
-0.0018068
0.0413091
-0.00105577
-0.000337082
0.0413348
0.00867578
-0.0318146
-0.00717657
0.0101641
-0.0307232
0.0116407
-0.0295693
0.0131013
-0.0284384
0.0145443
-0.0275717
0.0159679
-0.0267655
0.0173684
-0.0258655
0.0187473
-0.0252331
0.0201001
-0.0244281
0.0214257
-0.0236972
0.0227245
-0.0230388
0.0239934
-0.0223119
0.0252294
-0.0215698
0.0264337
-0.0208887
0.027605
-0.0201836
0.0287392
-0.0194413
0.0298361
-0.0187217
0.0308956
-0.0179996
0.0319165
-0.0172607
0.0328959
-0.0165131
0.0338328
-0.0157716
0.0347276
-0.0150157
0.0355791
-0.0142463
0.0363866
-0.0134639
0.0371471
-0.0127055
0.0378619
-0.0119192
0.0385302
-0.0111203
0.0391514
-0.0103112
0.0397249
-0.00949202
0.0402491
-0.00870682
0.0407247
-0.00788111
0.0411514
-0.00704649
0.0415288
-0.00620451
0.0418565
-0.00535563
0.0421342
-0.00451542
0.042362
-0.00363495
0.0425398
-0.00276838
0.0426672
-0.0019342
0.042744
-0.00113252
-0.000363123
0.04277
0.00886925
-0.0333726
-0.00731126
0.0104156
-0.0322695
0.0119494
-0.031103
0.0134664
-0.0299554
0.0149649
-0.0290702
0.016443
-0.0282436
0.0178973
-0.0273197
0.0193286
-0.0266645
0.0207329
-0.0258325
0.022109
-0.0250733
0.0234569
-0.0243867
0.0247737
-0.0236288
0.0260566
-0.0228526
0.0273064
-0.0221385
0.0285217
-0.021399
0.0296988
-0.0206184
0.0308373
-0.0198601
0.0319369
-0.0190992
0.0329964
-0.0183202
0.034013
-0.0175298
0.0349856
-0.0167442
0.0359145
-0.0159446
0.0367987
-0.0151305
0.037637
-0.0143023
0.0384269
-0.0134953
0.0391692
-0.0126615
0.0398633
-0.0118144
0.0405085
-0.0109564
0.0411042
-0.0100877
0.0416487
-0.00925131
0.0421427
-0.00837513
0.0425858
-0.00748961
0.0429776
-0.00659633
0.0433178
-0.00569581
0.0436059
-0.00480352
0.0438422
-0.00387121
0.0440263
-0.00295254
0.044158
-0.00206587
0.044237
-0.00121148
-0.000389332
0.0442632
0.00907207
-0.0349918
-0.00745281
0.0106789
-0.0338764
0.0122723
-0.0326964
0.0138481
-0.0315313
0.0154045
-0.0306265
0.0169395
-0.0297787
0.0184497
-0.0288299
0.0199358
-0.0281506
0.0213939
-0.0272905
0.0228225
-0.0265019
0.0242216
-0.0257859
0.0255885
-0.0249956
0.0269201
-0.0241843
0.0282174
-0.0234357
0.0294787
-0.0226603
0.0307005
-0.0218402
0.0318822
-0.0210418
0.0330235
-0.0202406
0.0341231
-0.0194198
0.0351784
-0.018585
0.0361881
-0.0177539
0.0371525
-0.016909
0.0380704
-0.0160484
0.0389408
-0.0151726
0.0397609
-0.0143155
0.0405318
-0.0134323
0.0412526
-0.0125352
0.0419226
-0.0116264
0.0425411
-0.0107062
0.0431065
-0.00981675
0.0436195
-0.00888809
0.0440795
-0.00794964
0.0444862
-0.00700301
0.0448392
-0.00604878
0.045138
-0.00510231
0.0453828
-0.00411604
0.0455734
-0.00314313
0.0457094
-0.00220185
0.0457905
-0.00129262
-0.000415573