/*--------------------------------*- C++ -*----------------------------------*\
| =========                 |                                                 |
| \\      /  F ield         | OpenFOAM: The Open Source CFD Toolbox           |
|  \\    /   O peration     | Version:  3.0.1                                 |
|   \\  /    A nd           | Web:      www.OpenFOAM.org                      |
|    \\/     M anipulation  |                                                 |
\*---------------------------------------------------------------------------*/
FoamFile
{
    version     2.0;
    format      ascii;
    class       volVectorField;
    location    "500";
    object      U;
}
// * * * * * * * * * * * * * * * * * * * * * * * * * * * * * * * * * * * * * //

dimensions      [0 1 -1 0 0 0 0];

internalField   nonuniform List<vector> 
58000
(
(0.301767 1.19002 2.32245e-21)
(0.449301 1.31412 -1.8587e-20)
(0.600569 1.35231 2.03571e-20)
(0.728715 1.30656 -3.08014e-20)
(0.829278 1.2175 -6.16465e-20)
(0.907928 1.10981 0)
(0.969716 1.00239 -3.46558e-20)
(1.01618 0.898508 -5.33335e-22)
(1.0536 0.803167 3.94359e-20)
(1.08357 0.721913 0)
(1.10769 0.651623 4.25855e-20)
(1.12822 0.591285 4.04486e-20)
(1.14717 0.542868 -1.28744e-19)
(1.16105 0.502915 4.48672e-20)
(1.17114 0.468842 4.01466e-20)
(1.17896 0.44035 8.02688e-20)
(1.18453 0.41654 -1.17821e-19)
(1.18846 0.395732 0)
(1.1912 0.376596 7.42367e-20)
(1.19305 0.358727 -1.09987e-19)
(1.19409 0.342382 9.38629e-22)
(1.19422 0.327135 3.57146e-20)
(1.1939 0.312472 1.69129e-20)
(1.19265 0.297843 0)
(1.19121 0.283843 3.19924e-20)
(1.18887 0.270635 -1.57837e-20)
(1.18615 0.257878 0)
(1.18315 0.245395 2.9713e-22)
(1.17943 0.232922 0)
(1.17565 0.220968 -1.45926e-20)
(1.17127 0.209662 7.12242e-20)
(1.1667 0.19869 -7.0716e-20)
(1.16195 0.187926 -4.15262e-20)
(1.1568 0.177238 1.08985e-19)
(1.15139 0.166765 -2.70394e-20)
(1.14351 0.156395 -1.32756e-20)
(1.13219 0.146484 1.97745e-20)
(1.12059 0.137789 -1.27017e-20)
(1.11034 0.130364 1.89548e-20)
(1.10923 0.125513 0)
(0.551158 0.781923 -7.28077e-21)
(0.667173 0.857781 0)
(0.784449 0.914292 3.53349e-23)
(0.898162 0.967053 -3.57399e-23)
(1.00332 0.999259 3.75359e-20)
(1.09804 1.00719 3.045e-20)
(1.17829 0.994876 -5.77634e-20)
(1.24561 0.966228 1.65014e-20)
(1.3001 0.924701 7.79171e-20)
(1.34077 0.876973 -4.25035e-20)
(1.37057 0.824808 0)
(1.39064 0.770618 -7.6697e-20)
(1.40166 0.719497 5.12621e-20)
(1.4072 0.672143 2.74431e-20)
(1.40878 0.626891 -2.73936e-20)
(1.40767 0.585714 0)
(1.40493 0.549365 2.69483e-20)
(1.40115 0.51614 0)
(1.39664 0.485031 1.02366e-19)
(1.39182 0.456467 -1.53161e-19)
(1.38699 0.430892 0)
(1.38205 0.407273 1.23468e-19)
(1.37696 0.38477 -9.80979e-20)
(1.37162 0.363107 0)
(1.36637 0.343115 -3.52422e-20)
(1.36112 0.32473 0)
(1.3557 0.307056 0)
(1.3501 0.289911 3.36893e-20)
(1.34419 0.273189 0)
(1.3383 0.257519 -3.27151e-20)
(1.33241 0.242885 4.33044e-20)
(1.32633 0.228667 -4.21916e-20)
(1.32004 0.214742 3.14487e-20)
(1.31348 0.201056 -2.07474e-20)
(1.30667 0.18784 0)
(1.2996 0.175274 -3.03365e-20)
(1.29233 0.163823 2.00035e-20)
(1.28514 0.153787 0)
(1.27856 0.14466 -4.91813e-21)
(1.27345 0.136824 9.62977e-21)
(0.567505 0.710588 1.82291e-21)
(0.622815 0.77288 -5.82384e-22)
(0.690996 0.824683 1.43483e-21)
(0.767744 0.86412 1.08768e-21)
(0.848032 0.891077 -1.13379e-21)
(0.930378 0.906573 -1.69239e-20)
(1.00833 0.910115 2.12158e-20)
(1.08257 0.901981 0)
(1.15005 0.883413 -2.85436e-20)
(1.20727 0.856419 2.61251e-20)
(1.25651 0.822314 3.21764e-20)
(1.2973 0.783358 -1.76883e-21)
(1.32819 0.743098 0)
(1.35176 0.702442 7.16405e-20)
(1.36978 0.66154 -3.74016e-20)
(1.38237 0.622855 0)
(1.39056 0.587386 0)
(1.39574 0.554126 0)
(1.39866 0.522617 -1.84989e-20)
(1.39977 0.493474 1.9615e-20)
(1.39954 0.467037 0)
(1.39832 0.442408 1.82176e-20)
(1.39636 0.418951 0)
(1.39375 0.396516 0)
(1.3907 0.375784 3.63293e-20)
(1.38728 0.356531 -7.14299e-20)
(1.38348 0.337992 7.14569e-20)
(1.37935 0.320093 1.70604e-20)
(1.37488 0.302768 -3.49243e-20)
(1.37023 0.286516 -2.5534e-20)
(1.36542 0.271205 0)
(1.36034 0.256319 1.64064e-20)
(1.35502 0.241826 0)
(1.34942 0.227715 3.05335e-22)
(1.34362 0.214199 -2.40667e-20)
(1.33754 0.201323 1.61761e-20)
(1.33114 0.18906 0)
(1.32469 0.177508 0)
(1.31846 0.166465 -3.86322e-21)
(1.31289 0.155581 -4.06226e-21)
(0.643863 0.637471 3.18758e-21)
(0.682034 0.683588 7.14639e-22)
(0.725843 0.726628 -1.45462e-21)
(0.776035 0.763794 -8.49003e-24)
(0.831451 0.79248 3.81342e-21)
(0.891291 0.812327 0)
(0.951688 0.822581 -8.94491e-21)
(1.01189 0.824048 0)
(1.07032 0.817192 -1.68224e-20)
(1.12354 0.802939 -3.32482e-21)
(1.17243 0.782168 -2.14433e-20)
(1.21612 0.756064 2.05062e-20)
(1.25242 0.726938 -2.60511e-20)
(1.28253 0.695628 -5.28121e-20)
(1.30779 0.66246 -2.78207e-20)
(1.3276 0.629465 2.86859e-20)
(1.34249 0.597779 -2.70435e-20)
(1.35385 0.567014 0)
(1.36247 0.537093 -1.2826e-20)
(1.36858 0.508799 -5.79978e-20)
(1.3726 0.482623 5.81854e-20)
(1.37509 0.457919 -1.49298e-20)
(1.37642 0.434203 0)
(1.37677 0.411399 0)
(1.37625 0.390181 4.22015e-20)
(1.37504 0.370375 -5.68091e-20)
(1.37324 0.35128 5.59046e-20)
(1.37092 0.332823 -5.62931e-22)
(1.36812 0.314945 -1.10379e-19)
(1.36496 0.298118 6.90253e-20)
(1.36149 0.282239 -2.68991e-20)
(1.35768 0.266818 -1.34252e-20)
(1.35353 0.251823 5.31904e-20)
(1.34905 0.237237 -1.97476e-20)
(1.34433 0.22327 6.67301e-21)
(1.33939 0.20997 -6.3419e-21)
(1.33423 0.197177 -6.28961e-21)
(1.3289 0.18488 0)
(1.32355 0.173018 3.12129e-21)
(1.31844 0.161589 -3.24986e-21)
(0.685737 0.591266 -1.40675e-21)
(0.713305 0.627756 -1.90918e-21)
(0.744921 0.663499 -1.00939e-22)
(0.781527 0.69667 -5.04242e-22)
(0.823137 0.724841 -1.19895e-21)
(0.86965 0.747085 0)
(0.918454 0.761738 3.72819e-21)
(0.968872 0.769043 3.51149e-21)
(1.01952 0.769197 0)
(1.06748 0.762419 1.08334e-20)
(1.11324 0.749491 1.26376e-20)
(1.15587 0.731275 0)
(1.19303 0.709279 -1.85918e-20)
(1.22537 0.68429 1.97954e-20)
(1.25388 0.65677 0)
(1.27755 0.628374 -3.91362e-20)
(1.29649 0.600176 1.06786e-19)
(1.31191 0.572086 5.15122e-22)
(1.32446 0.544203 -2.09502e-20)
(1.33422 0.517346 0)
(1.34146 0.492084 0)
(1.34684 0.46796 0)
(1.35078 0.444621 2.20756e-20)
(1.35349 0.42206 0)
(1.35502 0.400939 0)
(1.35559 0.381114 0)
(1.35541 0.361957 3.39084e-20)
(1.35458 0.343414 -4.50973e-20)
(1.35315 0.325446 5.52239e-20)
(1.3512 0.3085 -3.37063e-20)
(1.34881 0.292468 0)
(1.34599 0.276895 0)
(1.34279 0.261758 -1.09629e-20)
(1.33922 0.247044 3.24872e-20)
(1.33535 0.232951 -2.44741e-22)
(1.33124 0.219508 -2.64437e-20)
(1.32689 0.20651 1.59595e-20)
(1.32231 0.193902 0)
(1.31754 0.181678 0)
(1.31269 0.169887 -5.23664e-21)
(0.722886 0.554786 0)
(0.744293 0.58415 1.39247e-21)
(0.768127 0.613624 1.27238e-21)
(0.795539 0.642168 4.61813e-22)
(0.827131 0.667991 -1.46603e-21)
(0.863338 0.690278 2.79789e-21)
(0.902637 0.707075 2.0835e-21)
(0.944488 0.718235 7.76396e-21)
(0.987896 0.723469 1.23668e-21)
(1.03035 0.722443 -1.62729e-20)
(1.07207 0.715784 -4.90987e-22)
(1.11212 0.704016 -3.29484e-20)
(1.14827 0.688063 4.85804e-20)
(1.18077 0.668658 -2.57484e-20)
(1.21036 0.646298 2.93324e-20)
(1.23586 0.622292 -2.81184e-20)
(1.25709 0.597617 0)
(1.27504 0.572382 0)
(1.29024 0.546793 0)
(1.3026 0.521657 0)
(1.31227 0.49759 -1.84843e-20)
(1.31989 0.474307 -1.74162e-20)
(1.32592 0.451569 5.37166e-20)
(1.33054 0.429425 -3.63879e-20)
(1.33377 0.408529 0)
(1.33584 0.388788 1.77334e-20)
(1.33702 0.369654 -2.70145e-20)
(1.33743 0.351086 3.66283e-20)
(1.33714 0.333062 -6.32143e-20)
(1.3362 0.316009 1.82485e-20)
(1.33471 0.299836 -3.58165e-20)
(1.33273 0.284116 3.60047e-20)
(1.33031 0.268831 -4.21569e-22)
(1.32746 0.253967 9.07414e-21)
(1.32426 0.239709 0)
(1.32078 0.226083 0)
(1.31701 0.21288 -8.65746e-21)
(1.31297 0.200039 8.70384e-21)
(1.30868 0.18758 0)
(1.30419 0.175582 -4.16104e-21)
(0.751678 0.525743 7.74198e-22)
(0.769284 0.550015 -8.9871e-22)
(0.78848 0.574633 -1.83073e-22)
(0.810194 0.598983 2.82409e-23)
(0.835131 0.621821 -1.31102e-21)
(0.863939 0.642636 -2.81304e-21)
(0.895836 0.65964 -2.68484e-21)
(0.930551 0.672566 -9.47475e-22)
(0.967485 0.680879 0)
(1.00462 0.683848 0)
(1.04202 0.681904 6.01302e-21)
(1.07888 0.675274 0)
(1.11312 0.664375 0)
(1.14474 0.64983 -2.02465e-20)
(1.17428 0.632132 1.06346e-20)
(1.20047 0.612259 -2.21712e-20)
(1.22293 0.591064 1.23717e-20)
(1.24247 0.568787 0)
(1.25948 0.545696 1.27318e-20)
(1.27373 0.522546 1.45308e-20)
(1.28527 0.499972 -2.91561e-20)
(1.29469 0.477827 4.36852e-20)
(1.30243 0.455975 1.42491e-22)
(1.30866 0.43451 -2.93544e-20)
(1.31333 0.414075 1.53001e-20)
(1.3167 0.39463 -2.98596e-20)
(1.31907 0.375705 -2.99395e-20)
(1.32058 0.357279 -1.45856e-20)
(1.32128 0.339346 1.53821e-20)
(1.32123 0.322322 -3.67358e-20)
(1.32053 0.306128 5.95733e-20)
(1.31929 0.290372 -2.49876e-22)
(1.31754 0.275037 -5.93992e-20)
(1.31532 0.260114 7.62033e-21)
(1.31269 0.245778 0)
(1.30972 0.232055 2.17014e-20)
(1.30643 0.218741 -7.52316e-21)
(1.30282 0.205775 0)
(1.29891 0.193188 3.5727e-21)
(1.29471 0.181064 3.88354e-21)
(0.7755 0.501649 -8.52632e-22)
(0.790462 0.522115 2.33118e-22)
(0.806516 0.54297 1.9023e-22)
(0.824406 0.563825 2.99798e-24)
(0.844777 0.583792 1.75063e-22)
(0.868284 0.602598 2.47818e-21)
(0.89456 0.618754 -1.33188e-21)
(0.923528 0.632021 2.53235e-21)
(0.954905 0.641824 -2.6429e-21)
(0.98714 0.647248 0)
(1.02029 0.648569 3.45969e-21)
(1.05367 0.645792 -1.19203e-20)
(1.08545 0.638939 6.25538e-21)
(1.11549 0.628499 -2.20744e-20)
(1.14416 0.614905 2.57931e-20)
(1.17021 0.598826 -2.58632e-20)
(1.19311 0.580973 2.85408e-20)
(1.2135 0.561658 0)
(1.23165 0.54117 -1.10751e-20)
(1.24723 0.520189 1.14868e-20)
(1.26017 0.499328 -1.1813e-20)
(1.27101 0.478561 2.32733e-20)
(1.28016 0.457832 -4.72896e-20)
(1.28774 0.437274 2.38965e-20)
(1.29368 0.417508 1.26097e-20)
(1.29819 0.398544 1.26625e-20)
(1.30164 0.379992 -2.46765e-20)
(1.30413 0.361854 4.97539e-20)
(1.30574 0.344141 0)
(1.30651 0.327254 3.77197e-20)
(1.30655 0.311134 -3.70794e-20)
(1.30598 0.295423 2.4794e-20)
(1.30485 0.280111 -1.85867e-20)
(1.3032 0.265193 6.35771e-21)
(1.30109 0.250836 6.03755e-21)
(1.29859 0.237069 -2.97022e-22)
(1.29573 0.223699 -6.29252e-21)
(1.2925 0.210668 0)
(1.28893 0.198015 -3.02039e-21)
(1.28503 0.185824 3.17302e-21)
(0.795355 0.481162 0)
(0.808414 0.49871 0)
(0.822264 0.516621 -1.54687e-21)
(0.837492 0.534631 4.3156e-22)
(0.854653 0.552079 2.13284e-22)
(0.874339 0.568842 -2.26823e-21)
(0.896395 0.583713 3.04263e-21)
(0.920856 0.596527 0)
(0.947647 0.606764 0)
(0.975608 0.613482 -6.16493e-21)
(1.00481 0.616865 -8.79903e-21)
(1.03474 0.616783 -1.38286e-23)
(1.06383 0.612987 1.56756e-20)
(1.09188 0.605832 -3.35117e-21)
(1.11914 0.595678 -1.02609e-20)
(1.14444 0.58293 0)
(1.16716 0.568141 0)
(1.1878 0.551648 0)
(1.20651 0.533732 0)
(1.22292 0.514979 -1.78395e-20)
(1.23685 0.495961 1.80634e-20)
(1.24876 0.476736 2.80524e-20)
(1.25901 0.457313 -3.87077e-20)
(1.26771 0.437851 1.00934e-20)
(1.27471 0.418938 0)
(1.28023 0.400631 -2.03654e-20)
(1.28463 0.382615 2.05394e-20)
(1.28801 0.364914 -1.0712e-20)
(1.29046 0.347556 0)
(1.29199 0.330927 -1.0726e-20)
(1.29271 0.31499 1.08776e-20)
(1.29277 0.299423 4.19896e-20)
(1.29223 0.284223 -4.20428e-20)
(1.29112 0.269391 2.10672e-20)
(1.2895 0.255088 -5.38089e-21)
(1.28744 0.241347 -2.59964e-20)
(1.28498 0.227988 1.04904e-20)
(1.28212 0.214958 5.17628e-21)
(1.27887 0.202298 -7.77995e-21)
(1.27525 0.19009 2.69786e-21)
(0.812196 0.463397 0)
(0.823811 0.478651 0)
(0.836027 0.494219 9.24511e-22)
(0.849313 0.509915 -4.13152e-22)
(0.864141 0.525224 1.26068e-22)
(0.881015 0.540111 1.30836e-21)
(0.899888 0.553596 -2.24284e-21)
(0.920845 0.565584 -1.33877e-21)
(0.943933 0.575642 4.34758e-21)
(0.968285 0.582883 -4.64753e-21)
(0.993998 0.587442 -1.0495e-22)
(1.02072 0.589125 7.8677e-23)
(1.04712 0.587525 6.13998e-21)
(1.07299 0.582885 9.34526e-21)
(1.09854 0.575493 1.14055e-20)
(1.12268 0.565544 -1.59424e-22)
(1.14477 0.553443 -1.12012e-20)
(1.16518 0.539516 0)
(1.184 0.52402 -1.29009e-20)
(1.20079 0.50744 1.36653e-20)
(1.21531 0.490288 -1.51278e-20)
(1.22796 0.472679 7.96315e-21)
(1.23903 0.454668 2.92877e-22)
(1.24859 0.436427 8.7424e-21)
(1.25647 0.418503 -1.66768e-20)
(1.26283 0.400991 0)
(1.26806 0.383646 2.56457e-20)
(1.27223 0.366509 -4.33985e-20)
(1.27543 0.349626 3.51472e-20)
(1.27765 0.333365 -2.68902e-20)
(1.27901 0.317713 -1.77381e-20)
(1.27966 0.302383 1.7879e-20)
(1.27967 0.28738 1.78436e-20)
(1.27908 0.272712 -1.79521e-20)
(1.27792 0.258535 8.91924e-21)
(1.27628 0.244886 2.00777e-22)
(1.2742 0.231601 0)
(1.27169 0.218631 0)
(1.26877 0.20602 4.33678e-21)
(1.26543 0.193844 0)
(0.826658 0.447758 7.14358e-22)
(0.837137 0.461167 1.19828e-22)
(0.848094 0.474841 -1.21754e-22)
(0.85991 0.488639 2.28866e-24)
(0.872981 0.50215 0)
(0.887734 0.515382 -4.7621e-22)
(0.90417 0.527535 6.96241e-22)
(0.922396 0.538568 -7.0871e-22)
(0.942515 0.548126 2.39352e-21)
(0.963876 0.555417 -2.88147e-21)
(0.986596 0.560549 4.3995e-21)
(1.01043 0.563312 0)
(1.03431 0.563222 -5.63771e-21)
(1.05801 0.560438 1.64531e-21)
(1.08172 0.555188 1.62958e-20)
(1.10446 0.547509 -1.75029e-20)
(1.12562 0.537684 2.88924e-20)
(1.14545 0.526007 -9.96175e-21)
(1.164 0.5127 1.16012e-20)
(1.18082 0.498149 -1.22938e-20)
(1.19561 0.4828 0)
(1.20869 0.466801 1.33883e-20)
(1.22031 0.450234 1.28009e-20)
(1.2305 0.433276 0)
(1.23904 0.416424 0)
(1.2461 0.399803 1.385e-20)
(1.25201 0.383229 7.07547e-21)
(1.25686 0.366757 -7.1066e-21)
(1.26071 0.350448 1.44983e-20)
(1.26355 0.33465 2.24472e-20)
(1.26548 0.319371 -1.51752e-20)
(1.26668 0.304362 0)
(1.2672 0.289635 -1.52944e-20)
(1.26708 0.275204 1.53931e-20)
(1.26636 0.261222 7.66724e-21)
(1.26512 0.24773 -5.90452e-23)
(1.26341 0.234578 -7.7281e-21)
(1.26124 0.221725 0)
(1.25864 0.209214 -1.14151e-20)
(1.25557 0.197116 0)
(0.839213 0.433819 -8.52315e-22)
(0.848771 0.44572 8.51847e-22)
(0.858726 0.457837 5.52018e-22)
(0.869389 0.470064 -3.50428e-22)
(0.881095 0.482059 -1.71789e-23)
(0.894206 0.493857 4.38155e-22)
(0.908742 0.504795 7.90246e-22)
(0.924813 0.514864 -1.24956e-21)
(0.942547 0.523782 -2.82294e-22)
(0.961444 0.53085 2.39599e-21)
(0.981633 0.536169 -6.54093e-21)
(1.00296 0.539533 -6.42454e-22)
(1.02453 0.540438 1.44707e-20)
(1.04618 0.538982 -1.02331e-20)
(1.06805 0.535347 -6.62076e-21)
(1.0893 0.529465 7.939e-21)
(1.10934 0.521516 -1.56866e-20)
(1.12837 0.511757 -8.01647e-21)
(1.1464 0.500369 1.85691e-20)
(1.16296 0.487653 -1.88658e-20)
(1.17774 0.473985 0)
(1.19099 0.459529 0)
(1.20291 0.444378 -8.90395e-22)
(1.2135 0.428707 0)
(1.22253 0.412961 0)
(1.23011 0.397286 -1.25836e-20)
(1.23657 0.381547 -1.19954e-20)
(1.24197 0.36581 -1.22282e-20)
(1.24638 0.350146 1.19862e-20)
(1.24974 0.334886 -7.02966e-21)
(1.25219 0.320054 -3.59559e-22)
(1.25387 0.305437 1.31299e-20)
(1.25486 0.291052 0)
(1.25517 0.276922 1.96651e-20)
(1.25487 0.263196 -1.3332e-20)
(1.254 0.249917 -1.31259e-20)
(1.25264 0.236953 6.68999e-21)
(1.25079 0.224268 -3.31716e-21)
(1.24849 0.211905 1.01704e-20)
(1.24569 0.19993 0)
(0.850212 0.421272 5.64153e-22)
(0.859006 0.431918 -3.47198e-22)
(0.868141 0.442739 -1.33349e-22)
(0.877875 0.45365 3.07616e-22)
(0.888491 0.464364 3.77012e-23)
(0.900298 0.474925 2.38435e-22)
(0.913321 0.484777 -9.76746e-22)
(0.927668 0.493933 2.15978e-21)
(0.943469 0.502167 -3.1142e-21)
(0.960333 0.508871 -2.20362e-21)
(0.978393 0.514139 2.77245e-21)
(0.99755 0.517783 -3.45289e-21)
(1.01708 0.519311 7.17877e-21)
(1.03684 0.518782 4.72147e-21)
(1.05695 0.516341 1.02034e-20)
(1.07671 0.511852 6.14656e-22)
(1.09556 0.505419 -6.71714e-21)
(1.11366 0.497259 2.83008e-20)
(1.13098 0.487519 -3.71863e-20)
(1.14708 0.476422 3.21891e-20)
(1.16165 0.46428 -8.51675e-21)
(1.17485 0.451257 0)
(1.18687 0.437453 -7.46165e-22)
(1.19767 0.423031 0)
(1.20701 0.408387 0)
(1.21496 0.393674 0)
(1.22182 0.3788 7.16822e-22)
(1.22766 0.363839 3.28948e-20)
(1.23251 0.348868 -3.31789e-20)
(1.23633 0.334198 -3.45676e-22)
(1.23921 0.319868 -2.28152e-20)
(1.24132 0.305697 1.13414e-20)
(1.24271 0.291711 -1.11489e-20)
(1.24342 0.277935 -1.74153e-20)
(1.24349 0.264515 -5.62376e-21)
(1.24297 0.2515 1.15935e-20)
(1.24193 0.238771 0)
(1.24039 0.226298 -5.66147e-21)
(1.23837 0.214126 -7.09808e-21)
(1.23583 0.202314 1.48873e-21)
(0.859924 0.409885 5.09156e-22)
(0.868072 0.419474 0)
(0.87652 0.4292 -1.02344e-21)
(0.885486 0.438998 2.76649e-22)
(0.89521 0.44862 1.80957e-23)
(0.905957 0.458114 2.42665e-23)
(0.917754 0.467007 0)
(0.930697 0.475324 -9.34755e-22)
(0.944914 0.482885 1.34934e-21)
(0.960092 0.489159 -1.88418e-21)
(0.97636 0.494237 -2.43974e-21)
(0.993659 0.497954 -4.43733e-22)
(1.0114 0.499844 -4.20244e-22)
(1.02945 0.499942 0)
(1.04794 0.498367 -1.32831e-20)
(1.06625 0.494944 1.40826e-20)
(1.08391 0.489718 0)
(1.101 0.482874 -1.1646e-20)
(1.11751 0.474524 6.60381e-21)
(1.13303 0.464831 -1.38911e-20)
(1.14722 0.454046 6.54159e-21)
(1.16022 0.442328 0)
(1.17217 0.429775 7.8909e-21)
(1.18302 0.416535 -8.33879e-21)
(1.1925 0.402956 0)
(1.20068 0.389195 -1.78804e-20)
(1.20784 0.37519 1.86745e-20)
(1.21399 0.361019 9.69528e-21)
(1.21919 0.346766 -1.88463e-20)
(1.22337 0.332719 0)
(1.22661 0.31893 2.87815e-22)
(1.22908 0.305246 -1.94256e-20)
(1.23083 0.291698 1.02494e-20)
(1.23188 0.278318 0)
(1.23228 0.265246 5.18214e-21)
(1.23207 0.252536 -5.1995e-21)
(1.23133 0.240082 4.94013e-21)
(1.23007 0.227861 5.22058e-21)
(1.22833 0.215916 1.0167e-20)
(1.22603 0.204303 5.03733e-21)
(0.868559 0.399479 0)
(0.876151 0.408166 0)
(0.884014 0.416959 2.98419e-23)
(0.89233 0.425806 -5.01234e-22)
(0.901309 0.43449 4.09433e-24)
(0.911177 0.443059 1.75871e-22)
(0.921959 0.451107 0)
(0.933743 0.458667 0)
(0.946645 0.465589 1.21354e-21)
(0.960412 0.471413 -1.24322e-21)
(0.975165 0.476227 4.50293e-22)
(0.990871 0.479887 -1.99896e-21)
(1.00704 0.48196 0)
(1.02357 0.482469 0)
(1.04058 0.48151 6.70387e-21)
(1.05754 0.478892 -7.6326e-21)
(1.07403 0.47462 7.41535e-22)
(1.09011 0.468846 5.85476e-21)
(1.10576 0.461656 -1.02631e-20)
(1.12061 0.453165 0)
(1.13431 0.443572 5.90032e-21)
(1.14699 0.433023 6.24315e-21)
(1.15874 0.421611 0)
(1.16951 0.409469 7.03271e-21)
(1.17902 0.396899 -1.46389e-20)
(1.18731 0.384056 0)
(1.19464 0.370904 8.14688e-21)
(1.20101 0.35752 -7.8809e-21)
(1.20646 0.34399 2.43079e-20)
(1.21091 0.330582 0)
(1.21444 0.317355 1.70047e-20)
(1.21721 0.304185 8.86448e-21)
(1.21926 0.291105 8.45279e-21)
(1.22061 0.278152 -8.74429e-21)
(1.22129 0.26546 8.82978e-21)
(1.22137 0.253087 0)
(1.22089 0.240941 -4.57504e-21)
(1.21989 0.229002 0)
(1.21839 0.217316 -4.5867e-21)
(1.21632 0.205932 -4.64442e-21)
(0.876282 0.389914 3.11779e-22)
(0.883389 0.397824 -4.31342e-22)
(0.890744 0.405813 9.0016e-22)
(0.898504 0.413839 2.30211e-22)
(0.906848 0.421711 -4.0944e-23)
(0.915974 0.429476 -2.97772e-22)
(0.925902 0.43678 1.35849e-22)
(0.936712 0.443659 -1.17627e-21)
(0.948509 0.449991 -6.77601e-22)
(0.961083 0.455372 -1.05063e-21)
(0.974545 0.459886 2.91987e-22)
(0.988881 0.463408 4.00996e-21)
(1.00368 0.465546 -4.11232e-21)
(1.01886 0.46631 -5.51375e-22)
(1.03453 0.465784 -6.46321e-22)
(1.05025 0.463768 1.41795e-20)
(1.06562 0.460242 -7.15049e-21)
(1.08072 0.455333 7.97129e-21)
(1.0955 0.449105 -9.34783e-21)
(1.10963 0.441633 6.93051e-23)
(1.12279 0.433074 -5.47697e-21)
(1.13506 0.423561 5.55932e-21)
(1.14651 0.413177 -1.72278e-22)
(1.15709 0.402041 0)
(1.16653 0.390413 0)
(1.17483 0.378442 -1.2814e-20)
(1.18223 0.36611 -6.61229e-21)
(1.18873 0.353493 -6.79995e-21)
(1.19435 0.340678 -4.55013e-22)
(1.199 0.32791 -2.18089e-20)
(1.20275 0.315257 7.13061e-21)
(1.20576 0.302614 0)
(1.20805 0.29002 -1.54772e-20)
(1.20965 0.277515 1.51603e-20)
(1.21058 0.265227 0)
(1.21089 0.253216 7.78073e-21)
(1.21065 0.241402 -3.9466e-21)
(1.20988 0.229771 -7.85863e-21)
(1.2086 0.218368 5.90957e-21)
(1.20675 0.20724 -5.85897e-21)
(0.883227 0.381077 0)
(0.889905 0.388312 0)
(0.896814 0.395602 -6.88885e-22)
(0.904088 0.402914 0)
(0.911884 0.41008 0)
(0.920372 0.417141 -1.13046e-22)
(0.929571 0.423788 1.15879e-22)
(0.939551 0.430058 1.1079e-21)
(0.950408 0.435849 1.60316e-21)
(0.961962 0.440806 3.08924e-21)
(0.974318 0.445008 3.99141e-21)
(0.987469 0.448349 3.42564e-21)
(1.00107 0.450472 -3.07943e-21)
(1.01505 0.451382 1.75953e-22)
(1.02953 0.451152 -4.7705e-21)
(1.0441 0.449584 1.15996e-20)
(1.05843 0.446641 -6.15489e-21)
(1.07258 0.442428 6.83495e-21)
(1.08651 0.436994 0)
(1.09991 0.430382 1.74548e-20)
(1.11248 0.422715 -1.75048e-20)
(1.12429 0.414111 -9.26091e-21)
(1.13538 0.404645 -2.03514e-20)
(1.1457 0.394422 -5.323e-22)
(1.15498 0.383662 -3.2458e-22)
(1.16322 0.372508 2.33145e-20)
(1.17061 0.360955 6.16277e-21)
(1.17716 0.349076 1.82186e-20)
(1.18287 0.336955 -1.86349e-20)
(1.18765 0.324819 6.62811e-21)
(1.19156 0.312738 1.30711e-20)
(1.19475 0.300628 -1.31925e-20)
(1.19723 0.288529 0)
(1.19903 0.276483 -6.97544e-21)
(1.20017 0.264614 0)
(1.20069 0.252982 1.68509e-22)
(1.20065 0.241519 -6.93438e-21)
(1.20008 0.230217 0)
(1.19901 0.219117 6.78336e-21)
(1.19734 0.208265 1.88127e-22)
(0.889501 0.372877 5.97855e-22)
(0.895796 0.379521 -9.09032e-23)
(0.902308 0.386199 1.14328e-22)
(0.909153 0.392886 -1.86564e-24)
(0.916468 0.399431 1.39322e-22)
(0.924401 0.405873 9.79863e-23)
(0.932969 0.411939 2.67443e-22)
(0.942234 0.417665 5.09759e-22)
(0.952279 0.422963 7.61694e-22)
(0.962954 0.427522 -2.61648e-21)
(0.974352 0.431417 -2.31456e-21)
(0.986472 0.434553 0)
(0.999022 0.43661 6.55342e-21)
(1.01195 0.43759 7.2271e-23)
(1.02534 0.437556 -8.30238e-21)
(1.03887 0.436319 -5.19526e-21)
(1.05225 0.43383 5.34815e-21)
(1.0655 0.430177 5.87825e-21)
(1.07861 0.425396 -6.45671e-21)
(1.09128 0.419508 0)
(1.10325 0.412607 8.15343e-21)
(1.11456 0.404799 9.14114e-21)
(1.12526 0.396148 1.01366e-21)
(1.13525 0.386745 -2.76414e-20)
(1.14432 0.37678 -9.40594e-21)
(1.15242 0.366384 0)
(1.15974 0.355562 1.0529e-20)
(1.16627 0.344384 -2.17474e-20)
(1.17201 0.332931 1.13739e-20)
(1.17687 0.321409 -3.82785e-22)
(1.18088 0.309893 1.10524e-20)
(1.1842 0.298311 2.29718e-20)
(1.18682 0.286708 -5.75711e-21)
(1.18878 0.275127 0)
(1.19009 0.263685 -5.88635e-21)
(1.19078 0.252444 6.2749e-21)
(1.19092 0.241345 0)
(1.19052 0.230384 6.00116e-21)
(1.18962 0.219603 -7.8929e-21)
(1.18813 0.209044 4.72075e-21)
(0.895193 0.365241 0)
(0.901142 0.371362 0)
(0.907298 0.3775 -2.39213e-22)
(0.91376 0.383637 -1.65255e-24)
(0.920647 0.389634 -1.94078e-22)
(0.928092 0.395529 0)
(0.936107 0.401078 4.78974e-22)
(0.944747 0.406316 -1.60838e-21)
(0.954086 0.411168 0)
(0.963994 0.415358 0)
(0.974555 0.418956 0)
(0.985773 0.421878 -2.56948e-21)
(0.997396 0.423839 2.39949e-21)
(1.00938 0.424836 -3.35524e-22)
(1.02181 0.424927 -1.42894e-22)
(1.0344 0.423931 -6.94411e-23)
(1.04688 0.421796 -3.7845e-22)
(1.0593 0.418593 -5.54911e-21)
(1.07162 0.41435 0)
(1.08359 0.409071 0)
(1.09497 0.402828 0)
(1.10577 0.395713 2.24336e-20)
(1.11603 0.387783 -1.45131e-20)
(1.12568 0.379115 1.66528e-20)
(1.13447 0.369872 4.58177e-22)
(1.1424 0.360175 -8.95462e-21)
(1.1496 0.350035 9.04389e-21)
(1.15605 0.339518 -9.54315e-21)
(1.16177 0.3287 1.903e-20)
(1.16664 0.31777 -6.11413e-22)
(1.17072 0.306803 -1.04669e-20)
(1.17411 0.295741 -6.12216e-22)
(1.17684 0.284629 -4.79204e-21)
(1.17892 0.273511 1.06151e-20)
(1.18036 0.262499 1.64959e-22)
(1.18119 0.251654 -5.41412e-21)
(1.18147 0.240927 5.43576e-21)
(1.18123 0.230317 -1.64619e-20)
(1.18048 0.219865 3.98234e-21)
(1.17913 0.209611 1.37033e-21)
(0.900376 0.358105 -1.3717e-22)
(0.906012 0.363763 2.6388e-22)
(0.911844 0.369422 8.86124e-22)
(0.91796 0.37507 2.64337e-22)
(0.924465 0.380582 4.37519e-23)
(0.931474 0.385989 1.51515e-23)
(0.938999 0.391078 -3.06614e-23)
(0.947087 0.395878 -3.7615e-22)
(0.955806 0.400326 1.60736e-21)
(0.965039 0.404176 -2.49579e-21)
(0.974864 0.407492 1.63355e-21)
(0.985286 0.410202 2.52563e-22)
(0.996086 0.412047 -4.88194e-21)
(1.00723 0.413026 -5.7877e-21)
(1.01879 0.413189 3.44408e-21)
(1.03052 0.412368 7.5584e-21)
(1.04219 0.410507 4.42059e-21)
(1.05383 0.407668 -1.34126e-20)
(1.06541 0.403868 0)
(1.07671 0.399102 0)
(1.0875 0.393424 5.77781e-21)
(1.09779 0.386913 1.30573e-20)
(1.10761 0.379619 -1.34678e-20)
(1.11688 0.371608 -5.69146e-22)
(1.12538 0.363019 -5.06874e-22)
(1.13309 0.353964 -4.51142e-22)
(1.14012 0.344456 7.77185e-21)
(1.14647 0.334557 8.25749e-21)
(1.15211 0.32434 -1.7511e-20)
(1.15697 0.313976 8.21456e-21)
(1.16106 0.303538 9.03284e-21)
(1.16449 0.292983 -4.68641e-22)
(1.16729 0.282352 3.18672e-22)
(1.16945 0.271693 9.43852e-21)
(1.17098 0.261108 -4.76558e-21)
(1.17193 0.250661 -9.6297e-21)
(1.17233 0.24031 4.85825e-21)
(1.17221 0.230056 5.02462e-21)
(1.17159 0.21994 -2.71419e-22)
(1.17038 0.209999 0)
(0.905111 0.351419 9.93516e-22)
(0.91046 0.356662 -1.71838e-22)
(0.915997 0.361894 -4.41609e-22)
(0.921798 0.367105 -2.3432e-22)
(0.927957 0.372184 -1.82774e-23)
(0.934575 0.377157 -1.36183e-22)
(0.941661 0.381833 -6.45465e-22)
(0.949258 0.38624 6.52125e-22)
(0.957425 0.390321 0)
(0.96606 0.393859 1.23851e-21)
(0.975232 0.396911 -1.55172e-21)
(0.984947 0.399414 3.88176e-21)
(0.995013 0.401135 -6.48264e-21)
(1.0054 0.402072 2.55886e-21)
(1.01618 0.402271 6.16148e-21)
(1.02714 0.401575 -9.71378e-21)
(1.03806 0.399927 0)
(1.04898 0.397381 4.24796e-21)
(1.05987 0.393948 0)
(1.07053 0.389616 4.71669e-21)
(1.08075 0.384422 -1.62684e-20)
(1.09053 0.378438 1.09224e-20)
(1.0999 0.371706 -1.19554e-20)
(1.10879 0.364281 0)
(1.11698 0.356284 -6.4165e-21)
(1.12444 0.347814 0)
(1.13128 0.33889 -1.44842e-20)
(1.13748 0.329568 1.4628e-20)
(1.14302 0.319915 0)
(1.14782 0.310089 -1.5971e-20)
(1.15189 0.30016 -9.21642e-23)
(1.15533 0.290093 7.88523e-21)
(1.15815 0.279932 -8.26041e-21)
(1.16037 0.269721 0)
(1.16197 0.25956 0)
(1.163 0.249508 0)
(1.1635 0.239532 1.27576e-20)
(1.16348 0.229637 -4.36836e-21)
(1.16298 0.219861 -2.43874e-22)
(1.16188 0.210238 0)
(0.90945 0.345138 -2.26452e-22)
(0.914535 0.350009 -1.54179e-22)
(0.919801 0.354857 3.69644e-22)
(0.925314 0.359677 -2.09816e-22)
(0.931157 0.364367 1.25746e-23)
(0.93742 0.368951 -1.52415e-22)
(0.944111 0.373257 1.35055e-22)
(0.951267 0.377309 -4.48595e-22)
(0.95894 0.381058 1.47109e-21)
(0.967039 0.384309 1.0294e-21)
(0.975627 0.387115 0)
(0.98471 0.38942 1.76026e-21)
(0.994119 0.391014 2.1387e-22)
(1.00383 0.391895 -2.45473e-21)
(1.0139 0.392102 4.84338e-21)
(1.02415 0.391493 0)
(1.03439 0.390012 0)
(1.04464 0.387704 1.45091e-20)
(1.05489 0.384577 5.97984e-22)
(1.06494 0.380611 -4.44298e-21)
(1.07461 0.375835 9.00211e-21)
(1.08391 0.370311 -9.61702e-21)
(1.09283 0.364074 -4.76419e-21)
(1.10133 0.357173 -1.13549e-20)
(1.10919 0.34971 1.75812e-20)
(1.11639 0.341775 1.24059e-20)
(1.12301 0.333389 -3.15655e-20)
(1.12904 0.324603 1.93875e-20)
(1.13445 0.31548 1.36678e-20)
(1.13916 0.306162 -7.05281e-21)
(1.14319 0.296718 0)
(1.14661 0.287121 7.06918e-21)
(1.14944 0.277414 0)
(1.15168 0.26764 0)
(1.15333 0.257893 7.61123e-21)
(1.15441 0.248232 -1.51669e-20)
(1.15498 0.23863 -1.55269e-20)
(1.15505 0.229092 -7.59676e-21)
(1.15463 0.219656 -6.8729e-21)
(1.15364 0.210353 -9.63242e-22)
(0.913437 0.339224 0)
(0.918278 0.343759 0)
(0.923293 0.348261 -6.86657e-22)
(0.92854 0.35273 1.33446e-23)
(0.934093 0.35707 3.506e-23)
(0.940033 0.361303 1.33832e-22)
(0.946364 0.365274 -3.07768e-22)
(0.95312 0.369006 0)
(0.960348 0.372454 -7.46097e-22)
(0.967965 0.375443 -2.82665e-21)
(0.976028 0.378021 2.30027e-21)
(0.984542 0.380138 2.79978e-21)
(0.993359 0.381605 0)
(1.00245 0.382421 -3.87059e-21)
(1.01189 0.382619 -9.26619e-21)
(1.02149 0.38207 9.94997e-21)
(1.0311 0.380719 4.46821e-22)
(1.04074 0.378605 -1.94473e-20)
(1.05038 0.375732 7.22815e-21)
(1.05986 0.372078 -2.31892e-20)
(1.06902 0.367663 -5.47896e-22)
(1.07784 0.362542 5.79445e-22)
(1.08633 0.356743 6.10187e-22)
(1.09444 0.350311 1.00979e-20)
(1.10197 0.343329 3.8409e-22)
(1.10889 0.335883 -1.02172e-20)
(1.11528 0.327992 -5.78386e-21)
(1.12112 0.319703 -6.33875e-21)
(1.12638 0.311075 1.19551e-20)
(1.13099 0.302236 -6.42704e-21)
(1.13494 0.293254 0)
(1.13831 0.284108 -1.73379e-22)
(1.14112 0.274838 -1.96747e-20)
(1.14336 0.265487 -3.16264e-23)
(1.14504 0.256145 6.80366e-21)
(1.14616 0.246867 7.09533e-21)
(1.14678 0.237632 7.15608e-21)
(1.14691 0.228448 7.2061e-21)
(1.14658 0.219351 1.04624e-20)
(1.14566 0.21037 0)
(0.917109 0.333645 3.47076e-23)
(0.921723 0.337875 -4.24238e-22)
(0.926505 0.342065 3.19059e-22)
(0.931506 0.346215 -1.82475e-22)
(0.936792 0.350239 -7.92219e-24)
(0.942434 0.354156 0)
(0.948436 0.357825 2.95002e-22)
(0.954828 0.361266 0)
(0.961651 0.36444 -1.26303e-21)
(0.968831 0.367188 1.76367e-21)
(0.976418 0.369555 -2.19889e-21)
(0.984418 0.371496 -2.67439e-21)
(0.992698 0.372841 -2.98859e-21)
(1.00124 0.373585 -1.07404e-22)
(1.01009 0.373763 8.06191e-21)
(1.0191 0.373253 7.5408e-23)
(1.02813 0.372003 4.23103e-22)
(1.0372 0.370048 0)
(1.04628 0.367389 1.29535e-20)
(1.05523 0.364002 -6.56923e-21)
(1.06389 0.359901 7.56216e-21)
(1.07225 0.355133 -7.57116e-21)
(1.08033 0.349724 2.48976e-20)
(1.08805 0.34371 0)
(1.09525 0.337165 0)
(1.10189 0.330165 6.02535e-22)
(1.10805 0.322729 -1.04452e-20)
(1.11368 0.3149 0)
(1.11878 0.306734 -4.09434e-22)
(1.12325 0.298347 1.10465e-20)
(1.12711 0.289803 -3.85123e-22)
(1.13043 0.281085 1.15817e-20)
(1.13319 0.272235 6.11896e-21)
(1.13542 0.263293 -1.19034e-20)
(1.13709 0.254344 -1.52633e-23)
(1.13824 0.245441 6.18087e-21)
(1.1389 0.236567 0)
(1.13908 0.227732 2.98346e-21)
(1.1388 0.21897 -3.33783e-21)
(1.13796 0.210308 -5.96862e-21)
(0.9205 0.328373 6.95907e-23)
(0.924902 0.332326 7.19366e-22)
(0.929467 0.336231 -8.40914e-23)
(0.934238 0.340092 3.01342e-22)
(0.939275 0.343829 6.97188e-23)
(0.944642 0.347459 -2.05585e-23)
(0.950342 0.350854 5.0707e-22)
(0.9564 0.354031 0)
(0.962853 0.356955 2.35317e-21)
(0.969634 0.359484 0)
(0.976788 0.361656 0)
(0.98432 0.363433 0)
(0.992111 0.364659 5.54234e-21)
(1.00014 0.365332 0)
(1.00846 0.36548 3.22405e-22)
(1.01694 0.364993 -1.23035e-20)
(1.02543 0.363823 8.89532e-21)
(1.03397 0.361999 4.95147e-21)
(1.04253 0.359521 0)
(1.05098 0.356364 -5.90268e-21)
(1.05917 0.352537 -6.76019e-21)
(1.0671 0.348081 9.82005e-24)
(1.07477 0.343018 -8.11814e-21)
(1.08212 0.33738 7.31621e-21)
(1.089 0.33123 8.16558e-21)
(1.09535 0.324637 5.32701e-22)
(1.10126 0.31762 -8.80278e-21)
(1.10668 0.310219 -3.75212e-22)
(1.1116 0.302483 -4.18287e-22)
(1.11594 0.29452 0)