/*--------------------------------*- C++ -*----------------------------------*\
| =========                 |                                                 |
| \\      /  F ield         | OpenFOAM: The Open Source CFD Toolbox           |
|  \\    /   O peration     | Version:  3.0.1                                 |
|   \\  /    A nd           | Web:      www.OpenFOAM.org                      |
|    \\/     M anipulation  |                                                 |
\*---------------------------------------------------------------------------*/
FoamFile
{
    version     2.0;
    format      ascii;
    class       volScalarField;
    location    "500";
    object      nuTilda;
}
// * * * * * * * * * * * * * * * * * * * * * * * * * * * * * * * * * * * * * //

dimensions      [0 2 -1 0 0 0 0];

internalField   nonuniform List<scalar> 
58000
(
0.000803319
0.000740332
0.000668561
0.000606904
0.000561828
0.000519617
0.00048895
0.000466115
0.000447705
0.000435827
0.00042875
0.000423681
0.000420092
0.000419741
0.000419294
0.000418828
0.000418556
0.000419211
0.00042046
0.00042181
0.00042333
0.000424802
0.000426445
0.000427908
0.000429136
0.000430159
0.000430907
0.000431406
0.00043179
0.000431772
0.000431466
0.000430857
0.000429642
0.000427952
0.000425385
0.000421864
0.000417845
0.000413786
0.000409908
0.00040745
0.003024
0.00271905
0.00239534
0.00208329
0.00182524
0.00160474
0.00143078
0.00129888
0.00119156
0.00110932
0.00104837
0.000999508
0.000958868
0.000929777
0.000907996
0.000890156
0.000875611
0.000865554
0.000858438
0.000852052
0.000846756
0.000839782
0.000833292
0.00082695
0.000819758
0.000811702
0.000802981
0.000794251
0.000786427
0.000778327
0.000769718
0.000760638
0.000751442
0.000743049
0.00073375
0.000723208
0.000712186
0.00070181
0.000692967
0.000686275
0.00528386
0.00493723
0.00453721
0.00410144
0.00370875
0.00335411
0.00304969
0.00280106
0.00258661
0.00241401
0.00228173
0.00217227
0.00207748
0.00200687
0.00195217
0.00190508
0.00186373
0.00183174
0.00180793
0.0017873
0.00176806
0.00174771
0.00172992
0.00171385
0.00169742
0.00168017
0.00166216
0.00164416
0.00162816
0.00161064
0.00159097
0.00156957
0.00154654
0.00152276
0.00149771
0.00147073
0.00144257
0.00141366
0.00138503
0.00135927
0.00751213
0.00714809
0.00671053
0.00622608
0.00576039
0.00531549
0.00492096
0.00458249
0.00427672
0.00401929
0.00381369
0.00363836
0.00348257
0.00336125
0.00326472
0.00318003
0.00310373
0.00304119
0.00299213
0.00294984
0.00290873
0.00286775
0.0028321
0.00280046
0.00276936
0.00273755
0.00270507
0.00267171
0.00263997
0.00260754
0.0025733
0.00253789
0.0024998
0.0024602
0.00241902
0.00237524
0.00233006
0.00228356
0.00223696
0.00219282
0.0097103
0.00934496
0.00889579
0.00838727
0.00788658
0.00739503
0.00693607
0.00653394
0.0061589
0.00583029
0.00555813
0.00531928
0.00510191
0.00492695
0.00478425
0.00465687
0.00454067
0.00444293
0.00436346
0.00429289
0.00422511
0.00415908
0.00410123
0.00404997
0.00400078
0.00394989
0.00389718
0.00384471
0.00379535
0.00374619
0.00369423
0.00363946
0.00358219
0.00352411
0.00346414
0.00340078
0.00333464
0.0032676
0.00320026
0.00313498
0.0118785
0.0115178
0.011069
0.0105525
0.0100364
0.00951679
0.009024
0.00857734
0.00815207
0.0077704
0.00744392
0.00715048
0.00687765
0.00665147
0.00646284
0.00629185
0.00613407
0.0059985
0.00588614
0.00578353
0.00568534
0.00559069
0.0055072
0.0054331
0.00536021
0.00528651
0.00521184
0.0051386
0.00506883
0.00499884
0.00492697
0.00485151
0.00477271
0.00469315
0.00461168
0.00452636
0.00443757
0.00434748
0.00425677
0.00416775
0.0140216
0.0136684
0.013226
0.0127113
0.0121914
0.0116602
0.011147
0.0106739
0.0102133
0.00979036
0.00942251
0.00908565
0.00876645
0.00849372
0.00826196
0.00804912
0.00785136
0.00767724
0.0075288
0.00739298
0.00726314
0.00713825
0.00702731
0.00692646
0.00682815
0.00672964
0.00663095
0.00653322
0.00644113
0.00634862
0.00625301
0.00615489
0.0060528
0.00594889
0.00584438
0.00573566
0.00562279
0.00550797
0.00539203
0.00527732
0.0161436
0.0157993
0.0153659
0.0148579
0.0143391
0.0138071
0.0132851
0.0127976
0.0123143
0.0118632
0.0114618
0.0110882
0.0107298
0.0104198
0.010151
0.00989984
0.00966214
0.00945058
0.00926779
0.00909953
0.00893802
0.00878256
0.00864132
0.00851283
0.0083886
0.00826358
0.00813783
0.0080145
0.00789663
0.00777946
0.00765981
0.00753631
0.00740966
0.00728079
0.00715141
0.0070176
0.00687969
0.00673824
0.00659525
0.00645316
0.018248
0.0179134
0.0174907
0.0169925
0.0164799
0.0159513
0.0154271
0.0149325
0.0144362
0.0139653
0.0135414
0.0131408
0.0127499
0.0124064
0.0121045
0.0118194
0.0115468
0.0113009
0.0110855
0.0108865
0.0106936
0.0105059
0.0103343
0.0101781
0.0100253
0.0098724
0.0097197
0.0095687
0.00942505
0.00928222
0.00913669
0.00898686
0.00883362
0.0086782
0.00852254
0.00836223
0.00819729
0.00802827
0.00785725
0.0076867
0.020338
0.0200132
0.0196017
0.0191151
0.0186114
0.0180892
0.0175669
0.0170688
0.0165673
0.0160849
0.0156451
0.0152233
0.0148091
0.0144391
0.0141094
0.0137946
0.0134908
0.0132133
0.0129666
0.0127355
0.0125118
0.0122947
0.0120935
0.0119078
0.0117275
0.0115465
0.0113648
0.0111862
0.0110146
0.0108453
0.0106721
0.0104955
0.010314
0.0101318
0.00994931
0.00976187
0.00956897
0.00937139
0.00917139
0.00897141
0.022416
0.0221009
0.0217009
0.0212265
0.0207331
0.0202196
0.0197025
0.0192055
0.0187021
0.018213
0.0177626
0.0173262
0.0168937
0.0165008
0.0161467
0.015806
0.0154748
0.0151691
0.0148943
0.0146347
0.0143826
0.014135
0.0139048
0.0136915
0.0134823
0.0132738
0.0130639
0.012857
0.0126573
0.0124605
0.0122599
0.0120556
0.0118457
0.0116356
0.0114255
0.0112109
0.0109889
0.0107618
0.010532
0.0103019
0.0244839
0.0241782
0.0237897
0.0233278
0.0228456
0.0223419
0.021832
0.0213389
0.0208365
0.0203441
0.0198854
0.0194399
0.0189945
0.0185849
0.0182117
0.0178493
0.017494
0.017163
0.0168622
0.016576
0.0162951
0.016019
0.0157611
0.0155191
0.0152822
0.0150444
0.0148066
0.0145707
0.0143426
0.0141179
0.0138911
0.0136597
0.0134216
0.0131832
0.0129448
0.0127017
0.0124507
0.012194
0.0119342
0.0116734
0.0265433
0.0262468
0.0258694
0.0254201
0.0249494
0.0244563
0.0239548
0.0234672
0.0229682
0.0224757
0.0220128
0.0215602
0.0211036
0.0206821
0.0202936
0.0199129
0.0195358
0.019182
0.018858
0.0185486
0.0182425
0.0179395
0.017654
0.0173842
0.0171186
0.016852
0.0165857
0.0163235
0.0160683
0.015816
0.015562
0.015303
0.0150364
0.0147686
0.0145021
0.0142305
0.0139503
0.013664
0.0133739
0.0130823
0.0285952
0.0283076
0.0279412
0.0275043
0.0270453
0.0265631
0.0260708
0.0255899
0.0250957
0.0246053
0.024141
0.0236842
0.0232204
0.0227886
0.0223869
0.0219899
0.0215967
0.021224
0.0208787
0.0205452
0.0202155
0.0198869
0.0195728
0.0192768
0.0189866
0.0186939
0.0184001
0.0181101
0.0178287
0.0175491
0.0172666
0.0169805
0.0166859
0.0163894
0.0160938
0.0157937
0.0154844
0.0151683
0.0148479
0.0145253
0.0306403
0.0303614
0.0300059
0.0295813
0.029134
0.0286629
0.0281803
0.0277068
0.0272185
0.0267315
0.0262676
0.0258087
0.0253404
0.0249006
0.0244871
0.0240787
0.0236717
0.0232826
0.0229184
0.0225632
0.0222078
0.0218557
0.0215181
0.021197
0.020881
0.020564
0.0202444
0.0199275
0.0196201
0.0193136
0.0190031
0.0186885
0.0183666
0.0180418
0.0177174
0.0173886
0.0170502
0.0167043
0.0163534
0.0159997
0.0326789
0.0324088
0.032064
0.0316518
0.0312162
0.0307562
0.0302835
0.0298179
0.0293362
0.0288536
0.0283914
0.0279321
0.0274612
0.0270159
0.0265941
0.0261754
0.0257564
0.025353
0.0249722
0.024598
0.0242207
0.023845
0.0234852
0.0231405
0.0227999
0.0224589
0.0221142
0.0217713
0.0214383
0.0211054
0.0207676
0.0204257
0.020076
0.0197228
0.0193698
0.0190124
0.0186447
0.018269
0.0178877
0.017503
0.0347117
0.0344503
0.0341163
0.0337163
0.0332925
0.0328436
0.0323809
0.0319233
0.0314487
0.0309713
0.0305117
0.0300531
0.0295812
0.029132
0.0287038
0.0282767
0.0278475
0.0274316
0.0270359
0.0266449
0.0262483
0.0258517
0.0254704
0.025103
0.0247387
0.0243742
0.0240051
0.0236371
0.0232788
0.0229201
0.0225556
0.0221858
0.0218096
0.021429
0.0210478
0.020662
0.0202653
0.01986
0.0194483
0.0190326
0.0367393
0.0364865
0.0361631
0.0357754
0.0353634
0.0349254
0.0344726
0.0340234
0.033556
0.0330844
0.0326281
0.032171
0.0316992
0.0312475
0.0308142
0.0303803
0.0299423
0.0295155
0.0291066
0.0287003
0.0282864
0.0278705
0.027469
0.0270802
0.0266934
0.0263048
0.0259133
0.0255213
0.0251372
0.0247544
0.0243645
0.0239683
0.0235657
0.0231579
0.0227489
0.0223349
0.0219094
0.0214747
0.021033
0.0205866
0.0387619
0.0385175
0.0382046
0.037829
0.0374299
0.0370019
0.0365589
0.036118
0.0356582
0.0351926
0.0347403
0.0342855
0.0338146
0.0333614
0.0329242
0.0324846
0.0320392
0.0316027
0.0311819
0.0307617
0.030332
0.0298984
0.0294769
0.0290689
0.0286612
0.0282507
0.0278371
0.0274219
0.0270136
0.0266068
0.026192
0.0257702
0.0253416
0.0249071
0.0244705
0.0240284
0.0235746
0.0231109
0.0226397
0.0221628
0.0407795
0.0405434
0.0402405
0.0398766
0.0394889
0.039072
0.0386393
0.0382074
0.0377552
0.0372959
0.036848
0.0363961
0.0359269
0.035473
0.0350329
0.0345886
0.0341367
0.0336916
0.03326
0.0328272
0.032383
0.0319333
0.031494
0.0310674
0.0306398
0.0302083
0.0297735
0.029336
0.0289047
0.0284744
0.0280354
0.0275886
0.0271348
0.026674
0.0262102
0.0257397
0.0252585
0.0247667
0.0242664
0.0237595
0.0427921
0.042564
0.0422712
0.0419188
0.0415419
0.0411358
0.0407138
0.0402921
0.0398469
0.039394
0.0389509
0.0385025
0.0380357
0.037582
0.0371397
0.0366915
0.036234
0.0357812
0.0353396
0.034895
0.0344376
0.0339731
0.0335173
0.0330731
0.0326266
0.0321751
0.0317197
0.031261
0.0308074
0.0303544
0.0298922
0.0294214
0.028943
0.0284568
0.0279666
0.0274689
0.0269605
0.0264407
0.0259117
0.0253753
0.0447993
0.0445791
0.0442963
0.0439563
0.0435889
0.0431932
0.0427813
0.0423686
0.0419317
0.0414862
0.0410488
0.0406044
0.0401409
0.0396879
0.0392444
0.0387929
0.0383304
0.0378704
0.0374194
0.0369637
0.0364939
0.0360157
0.0355445
0.0350838
0.0346194
0.0341486
0.0336724
0.0331942
0.0327196
0.0322439
0.0317604
0.0312666
0.0307642
0.0302532
0.0297375
0.0292136
0.0286784
0.0281313
0.0275741
0.0270087
0.0468007
0.0465881
0.0463148
0.0459857
0.0456289
0.045244
0.0448424
0.0444382
0.0440097
0.0435721
0.0431419
0.0427013
0.0422424
0.04179
0.0413469
0.0408923
0.0404252
0.0399583
0.0394982
0.0390317
0.0385503
0.0380592
0.0375737
0.0370974
0.0366163
0.0361277
0.0356327
0.0351353
0.0346404
0.0341434
0.0336384
0.0331221
0.0325964
0.0320615
0.0315212
0.0309719
0.0304107
0.0298368
0.0292521
0.0286582
0.0487959
0.048591
0.048327
0.0480081
0.0476619
0.0472879
0.0468976
0.046501
0.0460806
0.0456505
0.0452264
0.0447906
0.0443358
0.0438853
0.0434426
0.042988
0.0425179
0.042044
0.0415749
0.0410968
0.040605
0.0401021
0.0396031
0.0391119
0.0386154
0.0381104
0.0375978
0.0370822
0.0365679
0.0360506
0.0355247
0.0349865
0.0344371
0.0338799
0.033316
0.0327422
0.0321559
0.031556
0.0309443
0.0303226
0.0507843
0.0505871
0.0503334
0.0500235
0.0496874
0.049324
0.0489435
0.0485556
0.048144
0.0477219
0.0473039
0.0468733
0.0464225
0.0459743
0.0455315
0.0450756
0.044603
0.0441255
0.043649
0.0431602
0.0426576
0.0421432
0.0416312
0.0411249
0.0406152
0.0400951
0.039566
0.0390331
0.0385003
0.0379637
0.0374177
0.0368587
0.0362875
0.035708
0.0351211
0.0345235
0.0339127
0.0332875
0.0326496
0.0320007
0.052765
0.0525753
0.0523303
0.0520304
0.0517048
0.0513531
0.0509812
0.0506019
0.0501994
0.0497867
0.0493742
0.0489499
0.0485025
0.0480578
0.0476144
0.0471567
0.0466807
0.0461982
0.0457145
0.0452174
0.0447055
0.0441808
0.0436569
0.0431373
0.0426137
0.0420794
0.0415352
0.0409861
0.040436
0.039881
0.0393159
0.038737
0.0381451
0.0375442
0.0369351
0.0363145
0.0356799
0.0350301
0.0343668
0.0336915
0.0547374
0.0545561
0.0543184
0.0540284
0.0537132
0.0533715
0.0530093
0.0526391
0.0522458
0.0518413
0.0514354
0.0510164
0.0505737
0.0501319
0.0496904
0.0492318
0.0487516
0.0482633
0.0477713
0.0472674
0.0467474
0.0462135
0.0456788
0.0451468
0.044609
0.0440622
0.0435042
0.0429402
0.0423737
0.0418011
0.0412176
0.0406198
0.0400084
0.0393872
0.0387568
0.0381139
0.0374565
0.0367829
0.0360949
0.0353938
0.0566999
0.0565255
0.0562964
0.0560168
0.055713
0.0553803
0.0550276
0.0546669
0.054284
0.0538866
0.0534883
0.0530737
0.0526367
0.0521966
0.0517555
0.0512958
0.0508141
0.0503211
0.0498214
0.0493101
0.0487824
0.0482401
0.0476959
0.0471528
0.0466028
0.0460435
0.0454724
0.0448942
0.0443122
0.0437228
0.0431208
0.0425059
0.0418763
0.0412357
0.0405849
0.0399208
0.0392412
0.0385448
0.0378328
0.0371069
0.0586522
0.0584846
0.0582642
0.0579948
0.0577009
0.0573782
0.0570356
0.0566844
0.0563104
0.0559211
0.0555291
0.0551202
0.0546879
0.0542518
0.0538113
0.053349
0.0528641
0.0523653
0.0518609
0.0513436
0.0508093
0.0502596
0.0497067
0.0491537
0.0485928
0.048022
0.0474386
0.0468472
0.0462508
0.0456457
0.0450271
0.0443953
0.043748
0.0430889
0.0424186
0.0417341
0.0410333
0.0403147
0.0395797
0.0388297
0.0605936
0.0604327
0.0602214
0.059963
0.0596778
0.0593651
0.0590332
0.0586923
0.0583261
0.0579457
0.0575592
0.0571566
0.0567278
0.0562937
0.0558532
0.0553911
0.0549032
0.0543991
0.0538896
0.0533669
0.0528268
0.0522707
0.0517101
0.0511483
0.0505777
0.0499964
0.0494016
0.048798
0.0481881
0.0475686
0.0469346
0.0462868
0.0456226
0.0449459
0.0442569
0.0435528
0.0428317
0.0420918
0.0413347
0.0405615
0.0625233
0.0623689
0.0621673
0.0619174
0.061642
0.0613403
0.0610197
0.060687
0.0603293
0.0599566
0.0595767
0.0591799
0.0587565
0.0583239
0.0578817
0.0574181
0.0569256
0.056419
0.0559059
0.055379
0.054834
0.0542724
0.0537053
0.0531356
0.0525563
0.0519655
0.0513604
0.0507455
0.0501232
0.0494902
0.0488419
0.048179
0.047499
0.0468054
0.0460987
0.045376
0.0446354
0.0438753
0.0430969
0.0423014
0.06444
0.0642916
0.064098
0.0638578
0.0635928
0.063303
0.0629917
0.0626684
0.0623206
0.0619549
0.0615822
0.0611907
0.0607705
0.060338
0.0598952
0.0594274
0.0589335
0.0584251
0.0579092
0.0573789
0.0568301
0.0562639
0.0556911
0.0551146
0.0545276
0.0539284
0.053314
0.0526888
0.0520551
0.0514096
0.050748
0.050071
0.049376
0.0486667
0.0479432
0.0472029
0.0464438
0.0456642
0.0448655
0.0440487
0.0663431
0.0662004
0.0660145
0.065784
0.0655294
0.06525
0.0649492
0.0646363
0.0642966
0.0639392
0.0635713
0.0631847
0.0627665
0.0623355
0.0618908
0.0614214
0.0609264
0.0604167
0.0598989
0.059366
0.0588141
0.0582443
0.0576669
0.0570846
0.0564909
0.0558842
0.0552615
0.054627
0.0539829
0.0533259
0.0526519
0.0519618
0.0512527
0.0505286
0.0497894
0.0490325
0.0482558
0.0474578
0.0466397
0.0458026
0.0682318
0.0680945
0.0679163
0.0676958
0.0674524
0.0671823
0.0668922
0.0665876
0.0662573
0.0659066
0.0655444
0.0651599
0.0647445
0.0643132
0.063868
0.0633982
0.0629032
0.0623931
0.0618741
0.0613395
0.0607854
0.060213
0.0596319
0.0590448
0.0584454
0.0578322
0.0572021
0.0565592
0.0559056
0.0552381
0.0545528
0.0538504
0.0531282
0.0523903
0.0516365
0.0508642
0.0500709
0.0492553
0.0484187
0.0475624
0.0701051
0.069973
0.0698022
0.0695922
0.0693578
0.0690983
0.0688169
0.0685219
0.0681995
0.0678576
0.067499
0.0671164
0.0667014
0.0662708
0.0658262
0.0653572
0.0648631
0.0643535
0.0638342
0.0632988
0.0627435
0.0621692
0.0615853
0.0609944
0.0603903
0.0597715
0.059135
0.0584847
0.0578225
0.0571454
0.0564497
0.055736
0.0550017
0.054251
0.0534837
0.052698
0.0518883
0.0510558
0.0502017
0.0493272
0.0719622
0.0718349
0.0716706
0.0714692
0.0712452
0.0709943
0.0707231
0.0704362
0.0701232
0.0697854
0.0694311
0.0690498
0.0686368
0.0682082
0.0677653
0.0672981
0.0668058
0.0662975
0.0657787
0.0652433
0.0646875
0.0641122
0.0635265
0.0629329
0.0623254
0.0617018
0.0610594
0.0604025
0.0597326
0.059047
0.0583417
0.0576178
0.0568723
0.0561096
0.0553295
0.0545302
0.0537059
0.0528579
0.0519876
0.0510963
0.0738026
0.0736796
0.073521
0.073327
0.0731113
0.0728705
0.0726075
0.0723304
0.0720227
0.0716911
0.0713391
0.0709606
0.0705509
0.0701253
0.069685
0.0692205
0.0687309
0.0682247
0.0677072
0.0671724
0.066617
0.0660415
0.0654548
0.0648594
0.0642505
0.0636221
0.0629746
0.0623118
0.0616352
0.0609419
0.0602282
0.0594949
0.058739
0.0579653
0.0571731
0.056361
0.0555231
0.0546608
0.0537755
0.0528688
0.0756257
0.0755067
0.0753533
0.0751657
0.0749569
0.074724
0.0744699
0.0741991
0.0738992
0.0735734
0.0732244
0.0728494
0.072444
0.0720223
0.0715855
0.0711244
0.070638
0.0701347
0.0696191
0.0690857
0.0685312
0.0679563
0.0673692
0.0667726
0.0661618
0.0655304
0.0648791
0.0642117
0.0635292
0.0628293
0.0621084
0.0613665
0.0606011
0.059817
0.0590137
0.0581896
0.0573392
0.0564637
0.0555647
0.0546442
0.0774309
0.0773157
0.0771671
0.0769852
0.0767826
0.0765562
0.0763088
0.0760442
0.0757506
0.0754308
0.0750868
0.0747167
0.0743164
0.0738993
0.0734666
0.0730094
0.072527
0.0720269
0.071514
0.0709826
0.0704297
0.0698559
0.0692692
0.0686719
0.0680599
0.0674265
0.0667725
0.0661012
0.0654139
0.0647084
0.0639821
0.0632316
0.0624573
0.0616638
0.0608503
0.0600152
0.0591533
0.0582658
0.0573545
0.0564217
0.0792175
0.0791061
0.078962
0.0787855
0.0785884
0.0783679
0.0781265
0.0778676
0.0775799
0.077266
0.0769276
0.0765629
0.0761682
0.0757563
0.0753281
0.0748754
0.0743973
0.0739011
0.0733913
0.0728625
0.0723118
0.0717398
0.0711541
0.0705569
0.0699443
0.0693099
0.0686543
0.0679799
0.0672883
0.0665775
0.0658451
0.0650879
0.0643061
0.0635044
0.0626817
0.0618369
0.0609646
0.0600663
0.0591442
0.0582009
0.080985
0.080877
0.0807373
0.080566
0.0803742
0.0801593
0.0799235
0.07967
0.0793881
0.07908
0.0787472
0.0783883
0.0779995
0.077593
0.0771698
0.0767219
0.0762486
0.0757567
0.0752504
0.0747247
0.0741768
0.0736072
0.0730232
0.0724268
0.0718144
0.0711799
0.0705247
0.0698471
0.0691516
0.0684359
0.0676968
0.0669346
0.0661469
0.0653381
0.0645071
0.0636538
0.0627724
0.0618645
0.0609329
0.0599809
0.0827325
0.082628
0.0824925
0.0823261
0.0821395
0.0819299
0.0816996
0.0814514
0.0811751
0.0808728
0.0805458
0.0801927
0.07981
0.0794092
0.0789912
0.0785484
0.0780802
0.077593
0.0770907
0.0765686
0.076024
0.0754575
0.0748758
0.0742811
0.0736695
0.0730353
0.0723798
0.0717008
0.0710026
0.0702833
0.0695396
0.0687716
0.0679792
0.0671646
0.0663265
0.0654654
0.0645758
0.0636596
0.0627199
0.0617613
0.0844593
0.0843581
0.0842268
0.0840653
0.0838836
0.0836793
0.0834543
0.0832113
0.0829406
0.0826441
0.082323
0.0819757
0.0815992
0.0812043
0.0807917
0.0803544
0.0798915
0.0794093
0.0789114
0.0783934
0.0778527
0.0772898
0.0767113
0.0761192
0.075509
0.0748756
0.0742201
0.0735404
0.0728406
0.0721188
0.071372
0.0706001
0.0698034
0.0689833
0.0681389
0.0672708
0.066374
0.0654507
0.0645045
0.0635413
0.0861646
0.0860667
0.0859393
0.0857826
0.0856058
0.0854066
0.0851869
0.0849491
0.0846841
0.0843934
0.0840781
0.0837368
0.0833666
0.0829777
0.0825707
0.0821391
0.0816818
0.081205
0.0807119
0.0801984
0.079662
0.0791033
0.0785288
0.0779412
0.0773322
0.0767003
0.0760452
0.0753653
0.0746647
0.0739416
0.0731929
0.0724183
0.071619
0.0707933
0.0699432
0.069069
0.068166
0.0672367
0.0662855
0.06532
0.0878476
0.0877528
0.0876294
0.0874773
0.0873054
0.0871112
0.0868968
0.0866641
0.0864047
0.0861199
0.0858105
0.0854753
0.0851115
0.0847287
0.0843276
0.0839017
0.0834504
0.0829791
0.0824912
0.0819826
0.081451
0.080897
0.0803268
0.0797429
0.0791371
0.0785088
0.0778541
0.0771745
0.0764739
0.0757504
0.0750019
0.0742245
0.0734222
0.0725926
0.0717379
0.0708587
0.0699506
0.0690166
0.068062
0.0670965
0.0895074
0.0894158
0.0892962
0.0891486
0.0889815
0.0887924
0.0885831
0.0883556
0.0881018
0.0878229
0.0875194
0.0871904
0.0868331
0.0864566
0.0860614
0.0856416
0.0851964
0.084731
0.0842486
0.0837453
0.083219
0.0826702
0.0821048
0.0815249
0.0809225
0.0802972
0.0796446
0.0789665
0.0782669
0.0775441
0.0767953
0.0760168
0.0752123
0.0743797
0.0735216
0.0726386
0.0717266
0.0707891
0.0698328
0.0688698
0.0911434
0.0910548
0.090939
0.0907959
0.0906333
0.0904492
0.0902451
0.0900228
0.0897746
0.0895016
0.0892043
0.0888815
0.0885307
0.0881606
0.0877715
0.0873579
0.086919
0.0864599
0.0859833
0.0854857
0.0849652
0.0844223
0.0838625
0.0832869
0.0826883
0.0820662
0.0814163
0.0807404
0.0800427
0.0793225
0.0785733
0.0777947
0.076988
0.076153
0.0752933
0.0744075
0.0734927
0.0725531
0.0715968
0.0706387
0.0927548
0.0926691
0.092557
0.0924182
0.0922603
0.0920811
0.091882
0.091665
0.0914225
0.0911555
0.0908643
0.0905479
0.0902037
0.0898399
0.0894571
0.0890498
0.0886175
0.0881648
0.0876944
0.0872031
0.0866889
0.0861525
0.0856001
0.0850285
0.0844341
0.0838154
0.0831685
0.0824953
0.0817998
0.0810815
0.0803333
0.0795551
0.0787474
0.0779123
0.077053
0.0761648
0.0752478
0.0743072
0.0733524
0.0724019
0.0943409
0.0942581
0.0941495
0.094015
0.0938616
0.0936872
0.0934933
0.0932814
0.0930446
0.0927838
0.092499
0.0921888
0.0918512
0.0914939
0.0911173
0.0907166
0.0902911
0.0898451
0.0893813
0.0888965
0.088389
0.0878595
0.0873136
0.0867477
0.0861595
0.0855439
0.0849002
0.0842302
0.0835374
0.0828213
0.0820749
0.0812979
0.0804909
0.079656
0.0787967
0.0779078
0.0769902
0.07605
0.0750985
0.0741581
0.095901
0.095821
0.0957159
0.0955856
0.0954366
0.095267
0.0950781
0.0948714
0.0946404
0.094386
0.0941079
0.0938038
0.0934725
0.0931217
0.0927516
0.0923576
0.091939
0.0915001
0.0910432
0.0905654
0.0900652
0.0895432
0.0890036
0.0884435
0.0878608
0.0872497
0.0866102
0.0859442
0.0852549
0.0845416
0.0837976
0.0830225
0.0822169
0.0813831
0.0805243
0.0796358
0.0787188
0.0777802
0.0768336
0.0759056
0.0974346
0.0973573
0.0972556
0.0971294
0.0969848
0.0968198
0.0966359
0.0964343
0.096209
0.0959611
0.0956909
0.0953919
0.0950669
0.0947225
0.094359
0.0939719
0.0935606
0.093129
0.0926793
0.092209
0.0917168
0.0912039
0.0906701
0.090116
0.0895384
0.0889323
0.0882977
0.0876364
0.0869516
0.0862416
0.0855004
0.0847279
0.0839246
0.0830925
0.0822351
0.0813478
0.0804324
0.0794966
0.0785564
0.0776431
0.098941
0.0988664
0.0987681
0.0986459
0.0985055
0.0983451
0.098166
0.0979695
0.0977498
0.0975079
0.0972441
0.0969516
0.0966332
0.0962957
0.095939
0.0955591
0.0951552
0.0947311
0.094289
0.0938266
0.0933429
0.0928378
0.0923113
0.0917649
0.091192
0.090591
0.0899618
0.0893059
0.0886273
0.0879204
0.0871824
0.086413
0.0856126
0.0847832
0.0839279
0.0830428
0.0821299
0.0811981
0.0802655
0.0793691
0.10042
0.100348
0.100253
0.100134
0.0999982
0.0998424
0.0996681
0.0994765
0.0992623
0.0990262
0.0987686
0.0984826
0.0981713
0.0978407
0.0974911
0.0971184
0.0967222
0.0963059
0.0958718
0.0954177
0.0949438
0.0944456
0.0939263
0.0933865
0.0928195
0.0922244
0.0916015
0.0909513
0.090278
0.0895757
0.0888419
0.0880766
0.0872799
0.0864539
0.0856017
0.0847197
0.0838103
0.0828835
0.0819598
0.081082
0.101871
0.101801
0.101709
0.101595
0.101463
0.101311
0.101142
0.100955
0.100746
0.100516
0.100264
0.0999849
0.0996806
0.0993572
0.0990147
0.0986496
0.0982612
0.097853
0.0974269
0.0969813
0.0965158
0.0960259
0.0955156
0.0949813
0.0944202
0.0938317
0.0932168
0.0925719
0.0919037
0.0912065
0.0904778
0.0897174
0.0889254
0.0881035
0.0872555
0.0863775
0.0854726
0.0845516
0.0836379
0.0827803
0.103293
0.103226
0.103137
0.103026
0.102898
0.102751
0.102586
0.102404
0.102201
0.101976
0.101731
0.101458
0.101161
0.100845
0.10051
0.100152
0.0997717
0.0993717
0.0989542
0.0985174
0.0980601
0.0975784
0.0970755
0.0965478
0.0959931
0.0954113
0.0948036
0.0941656
0.0935036
0.0928122
0.0920893
0.0913346
0.0905481
0.0897315
0.0888885
0.0880154
0.0871158
0.0862015
0.0852986
0.0844624
0.104686
0.104622
0.104536
0.104429
0.104305
0.104162
0.104002
0.103825
0.103626
0.103408
0.103168
0.102902
0.102612
0.102303
0.101975
0.101625
0.101253
0.100862
0.100453
0.100027
0.0995765
0.0991038
0.0986068
0.0980854
0.0975375
0.0969626
0.0963622
0.0957329
0.0950769
0.0943919
0.0936754
0.0929272
0.0921472
0.0913369
0.0904998
0.0896325
0.088739
0.0878322
0.0869408
0.086127
0.106051
0.105988
0.105905
0.105802
0.105682
0.105543
0.105387
0.105215
0.105022
0.104809
0.104576
0.104317
0.104034
0.103732
0.103412
0.10307
0.102706
0.102323
0.101923
0.101505
0.101063
0.100598
0.100108
0.0995936
0.0990528
0.0984852
0.0978918
0.0972704
0.096622
0.0959444
0.0952354
0.0944946
0.0937216
0.0929192
0.092089
0.0912282
0.0903415
0.0894428
0.0885634
0.0877728
0.107386
0.107326
0.107246
0.107145
0.107029
0.106895
0.106743
0.106576
0.106388
0.106181
0.105954
0.105702
0.105426
0.105131
0.104818
0.104484
0.104129
0.103755
0.103365
0.102954
0.102521
0.102062
0.101579
0.101072
0.100539
0.0999785
0.0993916
0.0987789
0.0981387
0.0974694
0.0967687
0.0960362
0.0952718
0.0944791
0.0936556
0.0928018
0.0919224
0.0910323
0.0901655
0.0893983
0.108691
0.108633
0.108556
0.108459
0.108346
0.108216
0.108069
0.107906
0.107724
0.107523
0.107302
0.107057
0.106788
0.1065
0.106194
0.105868
0.105521
0.105158
0.104775
0.10437
0.103945
0.103494
0.103019
0.10252
0.101995
0.101443
0.100864
0.100259
0.0996278
0.098967
0.0982751
0.0975515
0.0967963
0.0960128
0.0951978
0.0943521
0.0934809
0.0926001
0.091746
0.0910025
0.109967
0.109911
0.109837
0.109743
0.109634
0.109508
0.109365
0.109207
0.10903
0.108834
0.10862
0.108383
0.10812
0.107839
0.10754
0.107221
0.106884
0.106528
0.106153
0.105755
0.105337
0.104894
0.104428
0.103938
0.103422
0.102879
0.102308
0.101711
0.101089
0.100437
0.0997548
0.0990407
0.0982951
0.0975212
0.0967154
0.0958787
0.0950164
0.0941453
0.0933043
0.0925843
0.111213
0.111159
0.111088
0.110997
0.110892
0.110769
0.110631
0.110477
0.110305
0.110115
0.109907
0.109677
0.109421
0.109147
0.108855
0.108544
0.108216
0.107867
0.107499
0.107109
0.106697
0.106263
0.105806
0.105325
0.104819
0.104285
0.103724
0.103136
0.102522
0.10188
0.101207
0.100503
0.0997682
0.0990045
0.0982086
0.0973813
0.0965286
0.0956675
0.0948396
0.0941427
0.11243
0.112378
0.112309
0.112221
0.112119
0.112001
0.111867
0.111717
0.11155
0.111365
0.111163
0.11094
0.11069
0.110423
0.110139
0.109836
0.109515
0.109174
0.108814
0.108432
0.108028
0.107603
0.107155
0.106683
0.106186
0.105662
0.105111
0.104533
0.103928
0.103295
0.102633
0.10194
0.101216
0.100463
0.0996772
0.0988598
0.0980169
0.0971662
0.0963513
0.0956771
0.113616
0.113566
0.1135
0.113416
0.113317
0.113202
0.113072
0.112927
0.112765
0.112585
0.112389
0.112172
0.11193
0.11167
0.111393
0.111097
0.110783
0.11045
0.110098
0.109724
0.109329
0.108913
0.108474
0.108011
0.107524
0.10701
0.106469
0.105901
0.105307
0.104684
0.104032
0.10335
0.10264
0.101897
0.101121
0.100314
0.0994811
0.098641
0.0978389
0.0971866
0.114773
0.114725
0.114661
0.11458
0.114484
0.114373
0.114247
0.114107
0.113949
0.113775
0.113584
0.113374
0.113139
0.112886
0.112616
0.112327
0.112019
0.111695
0.111351
0.110986
0.110599
0.110192
0.109762
0.109309
0.108832
0.108328
0.107798
0.107241
0.106657
0.106046
0.105405
0.104734
0.104035
0.103304
0.102539
0.101743
0.100921
0.100091
0.0993018
0.0986706
0.115901
0.115855
0.115793
0.115715
0.115622
0.115515
0.115393
0.115257
0.115104
0.114935
0.11475
0.114546
0.114319
0.114073
0.11381
0.113527
0.113227
0.112911
0.112575
0.112218
0.11184
0.11144
0.11102
0.110578
0.110111
0.109617
0.109098
0.108552
0.107979
0.107379
0.10675
0.106091
0.105404
0.104684
0.103931
0.103146
0.102335
0.101516
0.10074
0.100129
0.116999
0.116955
0.116895
0.11682
0.116731
0.116627
0.116509
0.116376
0.116228
0.116064
0.115885
0.115688
0.115469
0.115229
0.114973
0.114698
0.114405
0.114096
0.113768
0.11342
0.113051
0.11266
0.112249
0.111817
0.11136
0.110877
0.110369
0.109834
0.109272
0.108684
0.108067
0.107421
0.106745
0.106037
0.105296
0.104523
0.103723
0.102916
0.102152
0.10156
0.118069
0.118026
0.117968
0.117896
0.11781
0.117709
0.117595
0.117467
0.117323
0.117164
0.11699
0.116799
0.116588
0.116355
0.116106
0.115838
0.115553
0.115251
0.114932
0.114592
0.114232
0.11385
0.113449
0.113026
0.112579
0.112107
0.11161
0.111086
0.110537
0.10996
0.109355
0.108723
0.10806
0.107364
0.106634
0.105873
0.105086
0.10429
0.103538
0.102964
0.119109
0.119068
0.119013
0.118943
0.11886
0.118763
0.118652
0.118528
0.118389
0.118235
0.118066
0.117881
0.117676
0.117451
0.117209
0.116949
0.116671
0.116376
0.116065
0.115735
0.115383
0.115011
0.114618
0.114205
0.113769
0.113308
0.112822
0.11231
0.111772
0.111208
0.110615
0.109996
0.109345
0.108662
0.107946
0.107197
0.106422
0.105638
0.104897
0.104341
0.120121
0.120081
0.120028
0.119961
0.119881
0.119787
0.11968
0.11956
0.119425
0.119276
0.119113
0.118933
0.118736
0.118518
0.118283
0.11803
0.11776
0.117472
0.11717
0.116848
0.116506
0.116142
0.115759
0.115356
0.11493
0.11448
0.114005
0.113505
0.112979
0.112426
0.111846
0.11124
0.110603
0.109932
0.109229
0.108494
0.107731
0.106959
0.10623
0.10569
0.121104
0.121067
0.121015
0.120951
0.120873
0.120783
0.120679
0.120563
0.120433
0.120289
0.12013
0.119957
0.119766
0.119557
0.119328
0.119083
0.118819
0.11854
0.118245
0.117932
0.117599
0.117245
0.116871
0.116477
0.116062
0.115623
0.115159
0.11467
0.114157
0.113616
0.113049
0.112456
0.111832
0.111175
0.110485
0.109763
0.109014
0.108254
0.107537
0.107011
0.12206
0.122024
0.121975
0.121912
0.121838
0.121751
0.121651
0.121538
0.121412
0.121273
0.121119
0.120951
0.120767
0.120565
0.120344
0.120106
0.11985
0.119579
0.119291
0.118987
0.118663
0.118319
0.117955
0.11757
0.117164
0.116736
0.116284
0.115807
0.115306
0.114778
0.114224
0.113644
0.113033
0.11239
0.111714
0.111005
0.110269
0.109521
0.108815
0.108304
0.122988
0.122954
0.122906
0.122846
0.122775
0.12269
0.122594
0.122486
0.122364
0.122229
0.12208
0.121918
0.121739
0.121545
0.121331
0.1211
0.120853
0.120589
0.120309
0.120014
0.119699
0.119364
0.11901
0.118635
0.11824
0.117822
0.117381
0.116916
0.116426
0.115911
0.115373
0.114805
0.114207
0.113577
0.112915
0.11222
0.111497
0.110762
0.110067
0.109568
0.123889
0.123856
0.123811
0.123753
0.123684
0.123603
0.12351
0.123405
0.123288
0.123157
0.123014
0.122856
0.122684
0.122496
0.12229
0.122067
0.121828
0.121572
0.1213
0.121012
0.120706
0.120381
0.120036
0.119672
0.119287
0.11888
0.11845
0.117996
0.117519
0.117017
0.116492
0.115938
0.115353
0.114736
0.114088
0.113407
0.112697
0.111975
0.11129
0.110803
0.124764
0.124732
0.124689
0.124633
0.124567
0.124489
0.124399
0.124298
0.124184
0.124058
0.12392
0.123768
0.123601
0.12342
0.123223
0.123007
0.122775
0.122527
0.122263
0.121983
0.121686
0.12137
0.121035
0.120681
0.120307
0.11991
0.119491
0.119049
0.118584
0.118096
0.117583
0.117042
0.116471
0.115868
0.115233
0.114565
0.113869
0.113159
0.112485
0.112008
0.125612
0.125582
0.12554
0.125487
0.125423
0.125348
0.125262
0.125164
0.125055
0.124933
0.124799
0.124652
0.124491
0.124317
0.124127
0.12392
0.123695
0.123454
0.123198
0.122926
0.122638