/*--------------------------------*- C++ -*----------------------------------*\
| =========                 |                                                 |
| \\      /  F ield         | OpenFOAM: The Open Source CFD Toolbox           |
|  \\    /   O peration     | Version:  3.0.1                                 |
|   \\  /    A nd           | Web:      www.OpenFOAM.org                      |
|    \\/     M anipulation  |                                                 |
\*---------------------------------------------------------------------------*/
FoamFile
{
    version     2.0;
    format      ascii;
    class       volScalarField;
    location    "500";
    object      p;
}
// * * * * * * * * * * * * * * * * * * * * * * * * * * * * * * * * * * * * * //

dimensions      [0 2 -2 0 0 0 0];

internalField   nonuniform List<scalar> 
58000
(
-0.0380409
-0.307083
-0.490792
-0.599564
-0.663158
-0.70338
-0.730128
-0.74305
-0.748423
-0.747686
-0.74067
-0.729642
-0.716316
-0.700735
-0.683848
-0.667009
-0.650919
-0.635655
-0.621174
-0.607575
-0.594737
-0.582515
-0.570835
-0.559669
-0.549053
-0.538889
-0.528976
-0.519291
-0.509842
-0.500649
-0.49167
-0.482655
-0.473635
-0.464907
-0.456778
-0.447806
-0.438495
-0.429968
-0.423256
-0.417561
0.271073
0.154684
0.0365956
-0.087211
-0.194721
-0.289534
-0.368072
-0.434619
-0.492486
-0.536823
-0.569183
-0.592893
-0.608377
-0.615559
-0.617777
-0.615552
-0.609719
-0.601514
-0.592288
-0.582463
-0.572082
-0.561482
-0.551027
-0.541036
-0.531216
-0.521463
-0.511829
-0.502419
-0.493419
-0.484833
-0.476415
-0.46827
-0.460356
-0.452573
-0.444836
-0.436574
-0.42797
-0.419814
-0.412798
-0.407204
0.180931
0.0949592
0.0134692
-0.0675443
-0.146282
-0.217086
-0.283908
-0.340794
-0.391316
-0.435211
-0.46967
-0.496882
-0.518532
-0.533388
-0.542326
-0.547296
-0.548951
-0.547584
-0.544055
-0.539123
-0.533108
-0.526287
-0.51899
-0.511598
-0.504037
-0.496297
-0.488449
-0.480607
-0.472965
-0.465499
-0.458012
-0.450538
-0.44307
-0.435648
-0.428401
-0.42118
-0.413916
-0.406851
-0.400239
-0.39407
0.19032
0.138169
0.083672
0.0235176
-0.0393621
-0.101437
-0.162512
-0.218313
-0.270869
-0.318564
-0.358733
-0.39318
-0.423093
-0.446498
-0.463542
-0.476489
-0.485819
-0.491401
-0.493724
-0.493795
-0.492207
-0.489228
-0.485145
-0.480312
-0.474921
-0.469092
-0.462907
-0.456495
-0.450059
-0.443622
-0.43709
-0.430502
-0.423871
-0.417257
-0.410775
-0.404342
-0.39786
-0.391422
-0.385152
-0.379078
0.160408
0.122089
0.0838222
0.0418568
-0.00438752
-0.0514859
-0.100998
-0.148215
-0.194437
-0.238782
-0.277929
-0.312895
-0.344797
-0.371628
-0.392596
-0.409964
-0.424086
-0.43453
-0.441398
-0.44571
-0.448123
-0.448833
-0.447999
-0.445939
-0.443015
-0.439412
-0.435222
-0.430568
-0.42564
-0.420506
-0.415152
-0.409619
-0.403928
-0.398157
-0.392422
-0.386702
-0.380922
-0.375122
-0.369356
-0.363641
0.144588
0.115271
0.0862946
0.0546381
0.0192521
-0.0173046
-0.0571063
-0.0964004
-0.136031
-0.17556
-0.2119
-0.24558
-0.277436
-0.305598
-0.328751
-0.348948
-0.366369
-0.380404
-0.390846
-0.398637
-0.404445
-0.408391
-0.41052
-0.411058
-0.410482
-0.409028
-0.406789
-0.403881
-0.400468
-0.396659
-0.392514
-0.388083
-0.383398
-0.378538
-0.373617
-0.368643
-0.363564
-0.358396
-0.353169
-0.347903
0.127944
0.104355
0.0815173
0.0569073
0.0292111
0.000616187
-0.0312712
-0.0634172
-0.0964614
-0.130478
-0.162741
-0.193468
-0.223352
-0.250876
-0.27434
-0.29557
-0.314608
-0.330768
-0.343593
-0.353892
-0.3623
-0.368848
-0.373477
-0.376307
-0.377872
-0.37843
-0.378058
-0.376853
-0.37495
-0.372483
-0.369575
-0.366278
-0.36263
-0.35871
-0.354624
-0.350409
-0.346033
-0.341507
-0.336853
-0.332091
0.11431
0.0947022
0.075962
0.0560163
0.0336007
0.010603
-0.01534
-0.0418027
-0.069298
-0.0982332
-0.126333
-0.15365
-0.180774
-0.206587
-0.229223
-0.250279
-0.269704
-0.286823
-0.30101
-0.312918
-0.323126
-0.331583
-0.338161
-0.342861
-0.346232
-0.348531
-0.349814
-0.350155
-0.349656
-0.34846
-0.346736
-0.344538
-0.341904
-0.338911
-0.335657
-0.332199
-0.328524
-0.324641
-0.320572
-0.316341
0.102386
0.0856982
0.0699052
0.0532773
0.0346494
0.0156941
-0.00579814
-0.0278391
-0.0508524
-0.0754311
-0.0997096
-0.123668
-0.147823
-0.171418
-0.192571
-0.212675
-0.231633
-0.248834
-0.263556
-0.276304
-0.28759
-0.297302
-0.305273
-0.311394
-0.316195
-0.319919
-0.322595
-0.324273
-0.325022
-0.324979
-0.324345
-0.323171
-0.321493
-0.319382
-0.316928
-0.314202
-0.311209
-0.307957
-0.304468
-0.300768
0.0920863
0.0776222
0.0640224
0.0498308
0.0339994
0.0180204
-0.00011774
-0.0187506
-0.0382295
-0.0592243
-0.0802086
-0.101134
-0.122458
-0.143717
-0.163112
-0.18186
-0.199843
-0.216538
-0.231194
-0.244188
-0.25597
-0.266386
-0.27525
-0.282365
-0.288221
-0.293039
-0.296825
-0.299603
-0.301409
-0.302366
-0.302694
-0.302437
-0.301628
-0.300331
-0.298623
-0.296585
-0.294239
-0.29159
-0.28866
-0.285478
0.0831087
0.0703944
0.0584895
0.0461552
0.032456
0.0187294
0.00316499
-0.0128189
-0.0295146
-0.0476016
-0.0658213
-0.0841208
-0.102904
-0.121923
-0.139517
-0.156749
-0.1735
-0.189339
-0.203531
-0.216353
-0.228198
-0.238884
-0.248227
-0.255964
-0.262538
-0.268143
-0.272763
-0.276401
-0.279065
-0.280856
-0.282002
-0.282539
-0.282495
-0.281925
-0.280893
-0.279487
-0.277737
-0.27565
-0.273247
-0.270556
0.0752492
0.0639469
0.0533887
0.0425121
0.0304835
0.0185047
0.00495466
-0.00894085
-0.0234271
-0.0391586
-0.0550861
-0.0711578
-0.0877296
-0.104705
-0.120584
-0.136297
-0.151728
-0.166536
-0.180026
-0.192402
-0.204006
-0.214644
-0.224145
-0.232202
-0.239207
-0.245331
-0.250537
-0.254812
-0.258141
-0.260601
-0.262419
-0.263621
-0.26423
-0.26429
-0.263856
-0.263013
-0.261802
-0.260228
-0.258311
-0.256076
0.0683326
0.058194
0.0487318
0.0390285
0.0283412
0.0177512
0.00580959
-0.00641313
-0.0191244
-0.0329365
-0.0469652
-0.0611631
-0.075842
-0.0910055
-0.105312
-0.119581
-0.133707
-0.147423
-0.160091
-0.171857
-0.183023
-0.193394
-0.202815
-0.210957
-0.218165
-0.224586
-0.230168
-0.234884
-0.238704
-0.241679
-0.244028
-0.24577
-0.246919
-0.247513
-0.247592
-0.247242
-0.246507
-0.245391
-0.243913
-0.242093
0.0622178
0.0530551
0.0445026
0.0357636
0.0261757
0.0167128
0.00607966
-0.00478154
-0.0160476
-0.0282816
-0.04073
-0.0533503
-0.0664171
-0.0799964
-0.0928948
-0.105836
-0.118727
-0.131362
-0.143164
-0.15424
-0.164851
-0.174811
-0.183987
-0.192043
-0.199279
-0.20582
-0.211607
-0.216601
-0.220757
-0.224108
-0.226861
-0.229025
-0.230607
-0.23164
-0.232151
-0.232223
-0.2319
-0.231186
-0.230097
-0.228649
0.0567896
0.0484567
0.0406719
0.0327401
0.0240695
0.0155382
0.00598782
-0.0037479
-0.0138209
-0.0247437
-0.0358677
-0.0471557
-0.0588486
-0.0710505
-0.0827033
-0.0944468
-0.106199
-0.117803
-0.128743
-0.139097
-0.149097
-0.158564
-0.167389
-0.175239
-0.182375
-0.188902
-0.194756
-0.199892
-0.204258
-0.207865
-0.210909
-0.213389
-0.21531
-0.216693
-0.217559
-0.217982
-0.218009
-0.21764
-0.216892
-0.215771
0.0519523
0.044334
0.0372061
0.0299602
0.0220669
0.0143184
0.00567755
-0.0031144
-0.0121891
-0.0220103
-0.0320152
-0.0421712
-0.0526896
-0.0636957
-0.0742526
-0.0849267
-0.0956449
-0.106288
-0.116399
-0.126037
-0.135406
-0.144341
-0.152751
-0.160314
-0.167258
-0.173672
-0.179489
-0.184662
-0.189132
-0.192896
-0.196133
-0.19884
-0.201013
-0.202668
-0.203816
-0.204527
-0.204845
-0.204768
-0.204311
-0.203474
0.0476256
0.0406292
0.0340708
0.0274156
0.0201898
0.0131084
0.00524204
-0.00274815
-0.0109771
-0.0198627
-0.0289135
-0.0381008
-0.0476104
-0.0575768
-0.0671702
-0.076893
-0.0866801
-0.0964424
-0.105774
-0.114721
-0.123466
-0.131857
-0.139817
-0.147045
-0.153736
-0.159966
-0.165669
-0.170798
-0.175288
-0.179127
-0.182479
-0.185335
-0.187685
-0.189543
-0.19091
-0.19185
-0.192404
-0.19257
-0.192358
-0.191764
0.0437429
0.0372929
0.0312331
0.0250928
0.0184468
0.0119412
0.00474216
-0.00255887
-0.0100629
-0.0181458
-0.0263759
-0.034728
-0.0433655
-0.052425
-0.0611703
-0.0700483
-0.0790007
-0.0879612
-0.096571
-0.104866
-0.113008
-0.12086
-0.128359
-0.135222
-0.141622
-0.147622
-0.153157
-0.15818
-0.162628
-0.166477
-0.169879
-0.172819
-0.175285
-0.177285
-0.178815
-0.179931
-0.180673
-0.181035
-0.181028
-0.180638
0.0402487
0.0342823
0.0286631
0.0229758
0.0168388
0.0108358
0.00421791
-0.00248459
-0.00936091
-0.0167486
-0.0242666
-0.0318931
-0.0397719
-0.0480367
-0.0560339
-0.0641611
-0.0723664
-0.0806005
-0.0885462
-0.0962315
-0.103802
-0.111133
-0.118173
-0.124662
-0.130748
-0.136489
-0.141818
-0.146692
-0.15105
-0.15486
-0.158259
-0.161231
-0.163761
-0.165853
-0.167498
-0.168744
-0.16963
-0.170149
-0.170307
-0.170087
0.037096
0.0315608
0.0263342
0.0210488
0.0153622
0.00980215
0.00369513
-0.00248274
-0.00881042
-0.0155907
-0.0224861
-0.0294775
-0.0366917
-0.044257
-0.0515918
-0.0590507
-0.0665871
-0.0741645
-0.0815024
-0.0886232
-0.0956569
-0.102491
-0.109086
-0.1152
-0.120965
-0.126428
-0.131529
-0.136224
-0.140455
-0.144188
-0.147544
-0.150507
-0.153059
-0.1552
-0.156918
-0.158257
-0.15925
-0.159889
-0.160179
-0.160097
0.0342447
0.0290963
0.0242219
0.019296
0.014011
0.00884417
0.00318978
-0.00252413
-0.00836795
-0.0146133
-0.0209603
-0.0273921
-0.0340206
-0.0409669
-0.0477129
-0.0545753
-0.0615119
-0.0684961
-0.0752791
-0.0818794
-0.0884132
-0.0947796
-0.100947
-0.106694
-0.112136
-0.117315
-0.122174
-0.126671
-0.130752
-0.134378
-0.137661
-0.140581
-0.143121
-0.145277
-0.147035
-0.148433
-0.149501
-0.15023
-0.150622
-0.15065
0.0316605
0.026861
0.0223045
0.0177022
0.0127779
0.00796293
0.0027123
-0.00258848
-0.00800239
-0.0137734
-0.0196339
-0.0255695
-0.0316788
-0.0380747
-0.044295
-0.0506232
-0.0570208
-0.0634685
-0.0697456
-0.0758674
-0.0819376
-0.0878657
-0.0936269
-0.0990192
-0.104145
-0.10904
-0.11365
-0.117938
-0.121852
-0.125353
-0.12854
-0.131392
-0.133893
-0.136036
-0.137806
-0.139236
-0.140351
-0.141143
-0.141613
-0.141727
0.029314
0.0248307
0.0205625
0.0162535
0.0116549
0.00715706
0.00226895
-0.00266177
-0.00769148
-0.013039
-0.0184655
-0.0239582
-0.0296044
-0.0355085
-0.0412576
-0.0471054
-0.0530175
-0.0589795
-0.0647953
-0.0704775
-0.0761191
-0.0816388
-0.0870171
-0.0920705
-0.0968891
-0.101505
-0.105867
-0.109941
-0.113678
-0.117039
-0.120113
-0.12288
-0.125321
-0.12743
-0.129189
-0.130627
-0.131768
-0.132601
-0.133125
-0.133305
0.0271795
0.0229841
0.0189789
0.0149366
0.0106338
0.0064232
0.00186266
-0.00273433
-0.00741845
-0.012386
-0.0174229
-0.0225182
-0.0277493
-0.0332121
-0.0385371
-0.0439517
-0.0494245
-0.0549457
-0.0603406
-0.0656195
-0.0708656
-0.0760058
-0.0810251
-0.0857567
-0.0902806
-0.0946246
-0.0987425
-0.102602
-0.106157
-0.10937
-0.11232
-0.114988
-0.117354
-0.119411
-0.121142
-0.122571
-0.123718
-0.124573
-0.125134
-0.125362
0.0252347
0.0213024
0.017538
0.0137398
0.00970666
0.00575766
0.00149452
-0.00279987
-0.00717129
-0.0117958
-0.0164814
-0.0212185
-0.0260756
-0.0311407
-0.0360828
-0.0411054
-0.0461802
-0.0513003
-0.0563101
-0.0612185
-0.0660999
-0.0708882
-0.075572
-0.08
-0.0842433
-0.0883259
-0.0922058
-0.0958525
-0.0992248
-0.102285
-0.105105
-0.107663
-0.109944
-0.111937
-0.113626
-0.115031
-0.116169
-0.117031
-0.117613
-0.117873
0.0234601
0.019769
0.0162262
0.0126522
0.00886607
0.00515647
0.0011645
-0.00285451
-0.00694179
-0.0112553
-0.0156224
-0.0200349
-0.0245537
-0.0292587
-0.0338533
-0.0385203
-0.0432336
-0.0479882
-0.0526454
-0.057213
-0.0617579
-0.0662201
-0.070591
-0.0747337
-0.078711
-0.0825438
-0.0861939
-0.0896334
-0.0928243
-0.0957305
-0.0984152
-0.100859
-0.103046
-0.104966
-0.106603
-0.107971
-0.109089
-0.109945
-0.110536
-0.110817
0.0218386
0.0183697
0.0150312
0.0116639
0.00810478
0.00461516
0.00087151
-0.0028957
-0.00672367
-0.0107539
-0.0148312
-0.0189485
-0.0231598
-0.0275377
-0.0318159
-0.0361589
-0.0405425
-0.0449636
-0.0492977
-0.0535519
-0.0577861
-0.0619462
-0.0660256
-0.0699005
-0.0736266
-0.0772221
-0.0806521
-0.083891
-0.086904
-0.0896567
-0.0922055
-0.094532
-0.09662
-0.0984607
-0.100036
-0.101361
-0.102449
-0.103289
-0.103877
-0.104169
0.0203553
0.0170913
0.0139421
0.0107659
0.00741621
0.00412945
0.000613883
-0.00292224
-0.0065125
-0.0102837
-0.0140963
-0.017944
-0.0218748
-0.0259546
-0.0299441
-0.0339909
-0.0380732
-0.0421886
-0.0462262
-0.0501919
-0.0541393
-0.0580195
-0.0618275
-0.0654516
-0.0689411
-0.072312
-0.0755321
-0.0785781
-0.0814182
-0.0840199
-0.0864334
-0.0886414
-0.0906281
-0.0923847
-0.0938941
-0.095168
-0.0962187
-0.0970357
-0.0976138
-0.0979075
0.0189968
0.0159224
0.0129488
0.00994981
0.006794
0.003695
0.000389714
-0.00293364
-0.00630523
-0.0098388
-0.0134086
-0.0170093
-0.0206835
-0.0244905
-0.0282154
-0.0319911
-0.0357973
-0.0396324
-0.0433972
-0.0470968
-0.0507791
-0.0544
-0.0579557
-0.0613451
-0.0646122
-0.0677709
-0.0707916
-0.0736531
-0.0763263
-0.0787807
-0.0810612
-0.0831512
-0.0850357
-0.0867059
-0.0881454
-0.0893639
-0.0903721
-0.0911596
-0.0917212
-0.0920103
0.0177512
0.0148527
0.0120424
0.00920839
0.00623246
0.00330763
0.000196764
-0.00292995
-0.00609973
-0.00941459
-0.0127611
-0.0161347
-0.0195734
-0.0231303
-0.0266122
-0.0301386
-0.033691
-0.0372685
-0.040782
-0.044236
-0.0476732
-0.0510537
-0.0543747
-0.0575447
-0.060603
-0.0635617
-0.0663935
-0.0690793
-0.0715924
-0.0739042
-0.0760549
-0.0780287
-0.0798112
-0.081394
-0.0827616
-0.0839216
-0.0848835
-0.0856372
-0.0861771
-0.0864565
0.0166081
0.013873
0.011215
0.00853494
0.00572629
0.00296346
3.28739e-05
-0.00291156
-0.00589462
-0.00900762
-0.0121482
-0.0153125
-0.0185341
-0.0218609
-0.0251191
-0.028416
-0.0317348
-0.035075
-0.0383566
-0.0415835
-0.0447937
-0.0479514
-0.051054
-0.0540191
-0.0568816
-0.0596519
-0.0623054
-0.0648242
-0.0671842
-0.0693588
-0.0713836
-0.0732438
-0.0749258
-0.0764216
-0.0777162
-0.078816
-0.079729
-0.0804457
-0.0809602
-0.0812258
0.0155582
0.0129752
0.0104597
0.0079234
0.00527058
0.00265886
-0.000104091
-0.00287925
-0.00568906
-0.00861529
-0.0115655
-0.0145362
-0.0175574
-0.0206719
-0.0237235
-0.0268086
-0.029912
-0.0330334
-0.0361007
-0.0391172
-0.0421172
-0.0450678
-0.0479673
-0.0507409
-0.0534199
-0.0560133
-0.0584985
-0.0608592
-0.0630734
-0.0651163
-0.0670197
-0.0687698
-0.0703536
-0.0717633
-0.072985
-0.0740238
-0.0748864
-0.0755639
-0.0760503
-0.0762992
0.0145931
0.0121521
0.00976991
0.00736818
0.00486085
0.00239038
-0.000216428
-0.00283401
-0.00548264
-0.00823556
-0.0110092
-0.0138005
-0.0166361
-0.0195544
-0.0224148
-0.0253043
-0.0282088
-0.0311278
-0.0339968
-0.0368183
-0.0396231
-0.0423815
-0.0450917
-0.0476865
-0.0501937
-0.0526209
-0.0549476
-0.0571588
-0.0592345
-0.0611516
-0.0629385
-0.0645822
-0.0660705
-0.067396
-0.0685456
-0.0695233
-0.070335
-0.070972
-0.0714285
-0.0716582
0.0137053
0.011397
0.00913975
0.00686421
0.00449303
0.00215486
-0.000306255
-0.00277678
-0.00527512
-0.00786685
-0.0104765
-0.0131012
-0.0157646
-0.0185012
-0.0211845
-0.0238927
-0.026613
-0.0293448
-0.0320298
-0.0346705
-0.037294
-0.0398735
-0.0424075
-0.0448353
-0.0471814
-0.0494528
-0.0516303
-0.0537004
-0.0556447
-0.057442
-0.0591174
-0.0606589
-0.062055
-0.0632986
-0.0643775
-0.0652948
-0.0660555
-0.0666513
-0.0670766
-0.0672857
0.0128879
0.0107039
0.00856397
0.00640697
0.00416343
0.0019494
-0.000375463
-0.00270856
-0.00506657
-0.0075081
-0.0099649
-0.0124345
-0.014938
-0.017506
-0.0200249
-0.0225651
-0.0251146
-0.0276727
-0.030187
-0.0326595
-0.0351144
-0.0375275
-0.0398973
-0.0421689
-0.0443644
-0.0464894
-0.0485267
-0.0504637
-0.0522838
-0.0539671
-0.0555363
-0.0569799
-0.0582873
-0.0594517
-0.0604617
-0.0613196
-0.0620298
-0.0625844
-0.0629779
-0.0631652
0.012135
0.0100674
0.00803788
0.00599241
0.00386869
0.00177131
-0.000425936
-0.00263038
-0.00485708
-0.00715838
-0.00947259
-0.0117976
-0.0141523
-0.0165638
-0.01893
-0.0213139
-0.0237047
-0.0261015
-0.0284571
-0.0307731
-0.0330712
-0.0353292
-0.0375459
-0.0396716
-0.0417258
-0.0437138
-0.0456193
-0.0474309
-0.0491335
-0.0507088
-0.0521769
-0.053527
-0.0547494
-0.0558375
-0.0567808
-0.0575808
-0.0582412
-0.058755
-0.0591164
-0.0592814
0.0114409
0.00948274
0.00755723
0.00561681
0.00360566
0.00161806
-0.000459492
-0.00254327
-0.00464684
-0.00681704
-0.00899812
-0.0111883
-0.0134042
-0.0156702
-0.017894
-0.0201326
-0.0223758
-0.0246226
-0.0268304
-0.0290006
-0.0311526
-0.0332661
-0.0353399
-0.0373291
-0.0392512
-0.0411104
-0.0428921
-0.0445858
-0.0461774
-0.0476504
-0.0490225
-0.0502838
-0.0514249
-0.0524398
-0.0533186
-0.0540625
-0.0546745
-0.055148
-0.0554776
-0.0556198
0.0108008
0.00894549
0.0071181
0.00527677
0.00337151
0.00148732
-0.000477825
-0.00244827
-0.00443632
-0.00648382
-0.00854042
-0.0106045
-0.0126911
-0.0148214
-0.0169125
-0.0190155
-0.0211211
-0.0232283
-0.0252984
-0.0273327
-0.0293483
-0.031327
-0.0332674
-0.0351289
-0.0369272
-0.0386657
-0.0403311
-0.0419139
-0.043401
-0.0447772
-0.0460583
-0.0472351
-0.0482987
-0.0492436
-0.0500606
-0.0507502
-0.0513152
-0.0517494
-0.0520476
-0.052167
0.01021
0.00845157
0.00671688
0.00496914
0.00316364
0.00137696
-0.0004825
-0.00234647
-0.00422605
-0.0061586
-0.00809866
-0.0100449
-0.0120104
-0.014014
-0.0159812
-0.0179577
-0.019935
-0.0219118
-0.0238535
-0.0257609
-0.0276493
-0.029502
-0.0313178
-0.0330599
-0.0347421
-0.0363675
-0.0379239
-0.0394023
-0.0407909
-0.0420758
-0.0432707
-0.0443672
-0.0453572
-0.0462353
-0.046993
-0.0476305
-0.0481502
-0.0485462
-0.0488135
-0.0489102
0.00966441
0.00799728
0.00635024
0.00469101
0.00297959
0.00128497
-0.000475046
-0.00223887
-0.00401652
-0.00584129
-0.00767211
-0.0095078
-0.01136
-0.0132453
-0.0150965
-0.0169548
-0.0188122
-0.0206674
-0.0224891
-0.0242779
-0.0260474
-0.0277825
-0.0294818
-0.0311121
-0.0326856
-0.034205
-0.0356589
-0.0370393
-0.0383352
-0.0395338
-0.0406473
-0.0416678
-0.0425878
-0.0434024
-0.0441035
-0.0446911
-0.0451671
-0.0455262
-0.0457633
-0.0458377
0.00916023
0.00757927
0.00601517
0.00443969
0.00281709
0.00120946
-0.000456899
-0.00212643
-0.00380817
-0.00553175
-0.00726007
-0.00899206
-0.0107381
-0.0125126
-0.0142553
-0.0160029
-0.0177482
-0.0194898
-0.0211993
-0.0228772
-0.0245356
-0.0261607
-0.027751
-0.0292766
-0.0307483
-0.0321682
-0.0335261
-0.0348143
-0.0360229
-0.0371402
-0.0381768
-0.0391254
-0.0399792
-0.0407334
-0.0413806
-0.0419205
-0.0423547
-0.0426781
-0.0428861
-0.0429386
0.00869408
0.00719448
0.00570892
0.00421275
0.00267406
0.00114871
-0.000429351
-0.00201001
-0.00360141
-0.00522988
-0.0068619
-0.0084965
-0.0101429
-0.0118137
-0.0134545
-0.0150985
-0.0167389
-0.0183742
-0.0199787
-0.0215529
-0.0231073
-0.0246295
-0.0261179
-0.0275455
-0.0289217
-0.0302484
-0.031516
-0.0327176
-0.0338442
-0.0348848
-0.0358489
-0.0367298
-0.0375209
-0.0382178
-0.0388138
-0.0393082
-0.0397024
-0.0399917
-0.0401715
-0.0402025
0.00826283
0.00684012
0.005429
0.00400799
0.00254863
0.00110116
-0.000393578
-0.0018904
-0.0033966
-0.00493559
-0.00647704
-0.0080201
-0.00957286
-0.0111464
-0.0126918
-0.0142386
-0.0157807
-0.0173165
-0.0188228
-0.0202997
-0.0217569
-0.0231827
-0.0245757
-0.0259113
-0.0271981
-0.0284374
-0.0296204
-0.0307407
-0.0317901
-0.0327585
-0.0336544
-0.0344713
-0.0352032
-0.035846
-0.0363934
-0.0368445
-0.0372006
-0.0374572
-0.0376098
-0.0376202
0.00786366
0.00651368
0.00517312
0.00382338
0.00243909
0.00106539
-0.000350656
-0.0017683
-0.00319411
-0.00464882
-0.00610503
-0.00756196
-0.00902673
-0.010509
-0.0119647
-0.0134204
-0.0148703
-0.0163129
-0.0177271
-0.019113
-0.020479
-0.0218146
-0.0231182
-0.0243678
-0.0255707
-0.026728
-0.0278316
-0.0288757
-0.0298525
-0.030753
-0.0315846
-0.0323413
-0.0330174
-0.033609
-0.0341103
-0.0345205
-0.0348403
-0.0350657
-0.0351924
-0.0351827
0.007494
0.00621283
0.00493923
0.00365711
0.00234388
0.0010401
-0.000301567
-0.0016444
-0.00299426
-0.00436955
-0.00574546
-0.00712127
-0.00850327
-0.0098998
-0.0112713
-0.0126414
-0.0140049
-0.0153601
-0.016688
-0.0179885
-0.0192691
-0.0205202
-0.0217401
-0.0229089
-0.0240331
-0.0251135
-0.0261427
-0.0271152
-0.0280239
-0.0288607
-0.0296317
-0.0303317
-0.0309552
-0.0314985
-0.0319564
-0.0323277
-0.0326132
-0.032809
-0.0329109
-0.0328821
0.00715148
0.00593547
0.00472543
0.00350749
0.00226158
0.00102411
-0.000247209
-0.00151929
-0.00279738
-0.00409774
-0.00539795
-0.00669732
-0.0080014
-0.00931736
-0.0106096
-0.0118993
-0.0131817
-0.0144549
-0.0157018
-0.0169223
-0.0181228
-0.0192946
-0.0204361
-0.0215293
-0.0225797
-0.023588
-0.0245474
-0.0254527
-0.0262976
-0.0270743
-0.0277886
-0.0284352
-0.0290091
-0.029507
-0.0299239
-0.0302587
-0.0305117
-0.0306795
-0.0307579
-0.0307109
0.00683394
0.00567967
0.00452999
0.00337301
0.00219091
0.00101635
-0.000188401
-0.00139354
-0.00260374
-0.00383338
-0.00506218
-0.00628949
-0.00752015
-0.00876034
-0.00997805
-0.0111922
-0.0123983
-0.0135946
-0.0147655
-0.0159108
-0.0170362
-0.0181337
-0.0192018
-0.0202239
-0.0212052
-0.0221459
-0.0230398
-0.0238822
-0.0246671
-0.0253876
-0.0260484
-0.0266449
-0.0271723
-0.0276275
-0.0280058
-0.0283062
-0.0285287
-0.02867
-0.0287262
-0.0286621
0.00653943
0.00544367
0.00435133
0.00325227
0.00213067
0.00101583
-0.00012589
-0.00126766
-0.00241362
-0.00357647
-0.00473786
-0.00589717
-0.00705863
-0.00822752
-0.00937505
-0.0105181
-0.0116525
-0.0127766
-0.0138761
-0.0149509
-0.0160058
-0.0170337
-0.0180328
-0.0189884
-0.0199048
-0.0207821
-0.0216146
-0.022398
-0.0231267
-0.0237944
-0.0244051
-0.0249546
-0.0254384
-0.0258535
-0.0261957
-0.0264637
-0.0266576
-0.0267741
-0.0268095
-0.0267293
0.00626611
0.00522585
0.00418801
0.00314399
0.00207978
0.00102165
-6.03583e-05
-0.0011421
-0.00222725
-0.00332698
-0.00442472
-0.00551984
-0.00661604
-0.00771779
-0.00879921
-0.00987537
-0.0109424
-0.0119986
-0.0130311
-0.0140396
-0.0150284
-0.0159909
-0.0169254
-0.0178185
-0.018674
-0.019492
-0.020267
-0.020995
-0.0216711
-0.0222892
-0.022853
-0.0233584
-0.0238014
-0.024179
-0.0244873
-0.024725
-0.0248922
-0.0249856
-0.0250015
-0.0249067
0.00601233
0.00502473
0.0040387
0.00304701
0.00203726
0.00103301
7.57334e-06
-0.0010173
-0.00204485
-0.00308491
-0.00412249
-0.005157
-0.00619161
-0.00723011
-0.00824924
-0.00926242
-0.0102661
-0.0112584
-0.0122279
-0.0131742
-0.0141009
-0.0150021
-0.015876
-0.0167105
-0.0175089
-0.0182712
-0.0189923
-0.0196685
-0.0202952
-0.020867
-0.0213868
-0.021851
-0.0222557
-0.0225983
-0.022875
-0.0230846
-0.0232268
-0.0232988
-0.0232968
-0.0231885
0.00577655
0.00483894
0.00390219
0.00296026
0.00200221
0.00104914
7.73423e-05
-0.000893622
-0.00186662
-0.00285024
-0.00383096
-0.00480817
-0.00578465
-0.00676354
-0.00772395
-0.0086778
-0.00962182
-0.0105542
-0.0114645
-0.0123522
-0.0132206
-0.0140642
-0.0148813
-0.0156608
-0.0164057
-0.0171157
-0.0177863
-0.018414
-0.0189945
-0.0195229
-0.0200017
-0.0204273
-0.0207964
-0.0211062
-0.0213535
-0.0215369
-0.021656
-0.0217082
-0.0216898
-0.0215696
0.00555739
0.00466723
0.00377735
0.00288275
0.0019738
0.00106938
0.000148441
-0.000771413
-0.0016927
-0.00262294
-0.00354987
-0.00447292
-0.0053945
-0.0063172
-0.00722224
-0.0081202
-0.00900805
-0.00988401
-0.0107386
-0.0115713
-0.012385
-0.0131745
-0.0139382
-0.0146662
-0.0153609
-0.016022
-0.0166453
-0.0172275
-0.0177648
-0.0182525
-0.0186929
-0.0190826
-0.0194184
-0.0196979
-0.0199178
-0.0200769
-0.0201748
-0.0202089
-0.0201757
-0.0200449
0.00535354
0.00450845
0.00366316
0.0028136
0.00195127
0.0010931
0.000220407
-0.000650971
-0.00152323
-0.00240294
-0.003279
-0.00415086
-0.00502057
-0.00589027
-0.00674307
-0.00758835
-0.00842331
-0.0092462
-0.0100484
-0.0108294
-0.0115917
-0.0123304
-0.0130441
-0.0137237
-0.0143713
-0.0149865
-0.0155655
-0.0161052
-0.0166021
-0.0170518
-0.0174563
-0.0178124
-0.0181173
-0.0183685
-0.0185632
-0.0186999
-0.0187783
-0.018796
-0.0187494
-0.0186098
0.00516381
0.00436154
0.00355868
0.00275197
0.00193394
0.00111974
0.000292821
-0.000532568
-0.00135834
-0.00219022
-0.00301815
-0.00384159
-0.0046623
-0.00548199
-0.00628549
-0.00708111
-0.00786625
-0.00863918
-0.00939211
-0.0101245
-0.0108384
-0.0115295
-0.0121962
-0.0128304
-0.0134338
-0.014006
-0.0145435
-0.0150435
-0.0155025
-0.0159168
-0.0162878
-0.0166127
-0.0168888
-0.0171138
-0.0172851
-0.0174013
-0.017462
-0.0174648
-0.0174065
-0.0172594
0.0049871
0.00422552
0.00346304
0.0026971
0.00192117
0.00114878
0.000365304
-0.00041645
-0.00119814
-0.00198471
-0.0027671
-0.00354474
-0.00431914
-0.00509163
-0.0058486
-0.00659738
-0.00733557
-0.00806148
-0.00876804
-0.00945467
-0.0101231
-0.0107694
-0.011392
-0.0119836
-0.0125456
-0.0130776
-0.0135763
-0.014039
-0.0144627
-0.0148438
-0.0151836
-0.0154795
-0.0157289
-0.0159297
-0.0160795
-0.0161769
-0.0162215
-0.016211
-0.0161424
-0.0159895
0.00482238
0.00409948
0.00337545
0.00264832
0.00191238
0.00117975
0.000437511
-0.000302833
-0.0010427
-0.00178638
-0.00252565
-0.00325996
-0.00399057
-0.00471851
-0.00543155
-0.00613616
-0.0068301
-0.00751173
-0.00817464
-0.00881823
-0.00944396
-0.0100482
-0.0106294
-0.011181
-0.0117042
-0.0121985
-0.0126608
-0.0130887
-0.0134794
-0.0138296
-0.0141403
-0.0144092
-0.0146338
-0.0148122
-0.0149422
-0.0150224
-0.0150525
-0.0150302
-0.0149529
-0.0147954
0.00466875
0.00398261
0.00329517
0.00260497
0.00190705
0.00121224
0.000509135
-0.000191907
-0.000892098
-0.00159514
-0.00229359
-0.0029869
-0.00367611
-0.00436199
-0.00503354
-0.00569647
-0.00634869
-0.00698863
-0.00761045
-0.00821353
-0.00879909
-0.00936379
-0.00990617
-0.0104203
-0.010907
-0.011366
-0.0117943
-0.0121896
-0.0125495
-0.0128708
-0.0131545
-0.0133983
-0.0135999
-0.0137577
-0.0138695
-0.013934
-0.013951
-0.0139183
-0.0138335
-0.0136729
0.0045253
0.00387413
0.00322151
0.00256647
0.00190469
0.00124584
0.000579898
-8.38386e-05
-0.000746388
-0.00141093
-0.00207072
-0.00272522
-0.00337529
-0.00402144
-0.00465381
-0.00527741
-0.00589031
-0.00649097
-0.00707409
-0.00763904
-0.00818682
-0.00871437
-0.00922029
-0.00969916
-0.0101518
-0.0105776
-0.0109741
-0.011339
-0.0116701
-0.0119645
-0.0122229
-0.0124434
-0.0126238
-0.0127625
-0.0128576
-0.012908
-0.0129132
-0.0128714
-0.0127803
-0.0126177
0.00439128
0.00377334
0.00315388
0.00253229
0.00190486
0.00128022
0.000649552
2.12277e-05
-0.000605607
-0.00123366
-0.00185685
-0.00247462
-0.00308766
-0.00369629
-0.00429165
-0.00487813
-0.00545395
-0.0060176
-0.00656427
-0.00709333
-0.00760557
-0.00809821
-0.00856989
-0.00901572
-0.00943633
-0.00983115
-0.0101978
-0.0105343
-0.0108385
-0.0111078
-0.0113428
-0.0115416
-0.0117023
-0.0118234
-0.0119032
-0.0119406
-0.0119352
-0.0118854
-0.0117892
-0.0116255
0.00426592
0.00367958
0.00309168
0.00250194
0.00190715
0.00131504
0.000717876
0.000123168
-0.00046978
-0.00106327
-0.00165178
-0.00223477
-0.00281278
-0.00338596
-0.00394636
-0.00449782
-0.00503866
-0.00556744
-0.00607977
-0.00657503
-0.00705386
-0.0075137
-0.00795323
-0.00836804
-0.00875862
-0.00912438
-0.00946313
-0.00977305
-0.0100521
-0.0102979
-0.0105111
-0.0106897
-0.0108322
-0.0109371
-0.0110028
-0.0110284
-0.0110135
-0.0109567
-0.0108562
-0.0106922
0.00414855
0.00359226
0.00303439
0.00247496
0.00191121
0.00135004
0.000784673
0.000221876
-0.000338916
-0.000899649
-0.00145532
-0.00200538
-0.00255025
-0.00308994
-0.00361732
-0.0041357
-0.00464355
-0.00513945
-0.00561944
-0.00608289
-0.0065303
-0.00695931
-0.00736866
-0.00775435
-0.00811675
-0.00845527
-0.0087679
-0.00905293
-0.00930847
-0.00953247
-0.00972524
-0.00988518
-0.0100107
-0.0101006
-0.0101534
-0.0101682
-0.0101447
-0.0100818
-0.00997764
-0.0098139
0.00403852
0.0035108
0.00298153
0.00245094
0.00191669
0.00138493
0.000849767
0.000317265
-0.000213017
-0.000742706
-0.00126727
-0.00178616
-0.00229968
-0.00280773
-0.00330389
-0.00379106
-0.00426778
-0.0047327
-0.00518222
-0.00561572
-0.00603358
-0.00643361
-0.00681461
-0.00717296
-0.00750892
-0.0078219
-0.00811005
-0.0083718
-0.00860541
-0.00880898
-0.00898275
-0.00912526
-0.00923507
-0.00931104
-0.00935187
-0.00935677
-0.00932556
-0.00925704
-0.0091499
-0.0089867
0.00393526
0.00343471
0.00293264
0.0024295
0.00192328
0.0014195
0.000913004
0.000409258
-9.20753e-05
-0.000592343
-0.00108744
-0.00157681
-0.00206068
-0.00253883
-0.00300551
-0.00346321
-0.00391056
-0.00434628
-0.00476709
-0.0051724
-0.00556245
-0.00593524
-0.00628961
-0.00662228
-0.00693343
-0.00722247
-0.0074877
-0.00772765
-0.00794072
-0.0081252
-0.00828124
-0.00840751
-0.00850269
-0.00856574
-0.0085955
-0.00859127
-0.00855291
-0.00847938
-0.00836958
-0.00820705
0.0038382
0.00336349
0.00288731
0.00241028
0.00193071
0.00145352
0.000974244
0.000497792
2.39251e-05
-0.000448463
-0.000915647
-0.00137708
-0.00183289
-0.00228279
-0.0027216
-0.00315148
-0.00357113
-0.00397933
-0.00437311
-0.00475186
-0.00511575
-0.00546293
-0.00579228
-0.00610084
-0.0063887
-0.00665529
-0.00689902
-0.00711856
-0.00731242
-0.00747904
-0.00761852
-0.00772962
-0.00781115
-0.00786216
-0.00788162
-0.00786891
-0.00782394
-0.00774578
-0.00763354
-0.00747159
0.00374686
0.0032967
0.00284515
0.00239296
0.00193871
0.0014868
0.00103337
0.00058282
0.000135007
-0.000310963
-0.000751712
-0.0011867
-0.00161597
-0.00203917
-0.00245165
-0.00285526
-0.00324879
-0.00363106
-0.00399936
-0.00435311
-0.00469238
-0.00501547
-0.00532131
-0.00560722
-0.00587322
-0.00611875
-0.00634234
-0.00654275
-0.00671862
-0.00686852
-0.00699249
-0.00708942
-0.00715819
-0.00719796
-0.0072078
-0.00718715
-0.00713598
-0.00705346
-0.00693886
-0.00677729
0.00366075
0.00323394
0.00280582
0.00237725
0.00194706
0.00151918
0.00109027
0.0006643
0.0002412
-0.000179741
-0.000595456
-0.00100541
-0.00140957
-0.00180755
-0.00219516
-0.00257396
-0.00294285
-0.00330068
-0.00364498
-0.00397518
-0.00429129
-0.00459173
-0.00487548
-0.00514012
-0.0053856
-0.00561136
-0.00581606
-0.00599854
-0.00615755
-0.00629179
-0.00640124
-0.00648489
-0.00654172
-0.00657095
-0.00657176
-0.00654364
-0.00648659
-0.00639987
-0.0062829
-0.00612141
0.00357945
0.00317483
0.00276899
0.00236288
0.00195554
0.00155049
0.00114485
0.000742205
0.000342541
-5.46881e-05
-0.000446699
-0.000832956
-0.00121338
-0.00158752
-0.00195163
-0.00230703
-0.00265267
-0.00298746
-0.00330916
-0.00361719
-0.0039115
-0.00419064
-0.00445364
-0.00469829
-0.00492449
-0.00513171
-0.00531869
-0.00548436
-0.00562757
-0.00574713
-0.00584297
-0.00591416
-0.00595978
-0.0059791
-0.0059714
-0.00593621
-0.00587354
-0.00578272
-0.0056633
-0.00550152
0.00350254
0.003119
0.00273435
0.0023496
0.00196396
0.00158059
0.00119704
0.000816515
0.000439072
6.4302e-05
-0.000305267
-0.000669102
-0.00102707
-0.0013787
-0.00172062
-0.00205393
-0.00237764
-0.00269073