/*--------------------------------*- C++ -*----------------------------------*\
| =========                 |                                                 |
| \\      /  F ield         | OpenFOAM: The Open Source CFD Toolbox           |
|  \\    /   O peration     | Version:  3.0.1                                 |
|   \\  /    A nd           | Web:      www.OpenFOAM.org                      |
|    \\/     M anipulation  |                                                 |
\*---------------------------------------------------------------------------*/
FoamFile
{
    version     2.0;
    format      ascii;
    class       surfaceScalarField;
    location    "500";
    object      phi;
}
// * * * * * * * * * * * * * * * * * * * * * * * * * * * * * * * * * * * * * //

dimensions      [0 3 -1 0 0 0 0];

internalField   nonuniform List<scalar> 
115520
(
0.0133296
-0.0016424
-0.0116872
0.0145004
-0.00117079
0.0147537
-0.000253242
0.0145179
0.0002358
0.0140411
0.000476732
0.0133968
0.00064431
0.0127927
0.000604119
0.0122423
0.000550364
0.0117316
0.000510684
0.0113541
0.000377565
0.0110993
0.000254817
0.0109184
0.000180878
0.0108087
0.000109641
0.010811
-2.25033e-06
0.0108647
-5.3676e-05
0.0109508
-8.61798e-05
0.0110593
-0.000108443
0.0111967
-0.000137432
0.0113517
-0.000154968
0.0115065
-0.000154786
0.0116561
-0.000149605
0.0117968
-0.000140745
0.0119371
-0.000140291
0.012069
-0.000131915
0.0121866
-0.000117561
0.0122887
-0.000102125
0.0123745
-8.57909e-05
0.0124465
-7.20107e-05
0.0125082
-6.16806e-05
0.0125514
-4.31507e-05
0.0125752
-2.3853e-05
0.0125782
-3.03332e-06
0.0125586
1.96457e-05
0.0125154
4.31627e-05
0.0124291
8.62956e-05
0.0123058
0.000123298
0.0121639
0.0001419
0.0120203
0.000143659
0.0118928
0.000127482
9.82917e-05
0.0117945
0.00839417
-0.00279108
-0.0072455
0.00943152
-0.00220813
0.0104307
-0.00125246
0.0113432
-0.000676694
0.0121252
-0.000305247
0.0127458
2.36886e-05
0.0132222
0.000127754
0.0135704
0.000202116
0.013791
0.000290091
0.0139479
0.000220699
0.0140606
0.000142108
0.014118
0.00012344
0.0141351
9.26251e-05
0.0141844
-5.1538e-05
0.0142284
-9.77443e-05
0.0142668
-0.000124593
0.0143036
-0.000145191
0.014365
-0.000198823
0.0144426
-0.000232574
0.0145184
-0.000230617
0.0145919
-0.000223067
0.0146616
-0.000210462
0.0147438
-0.000222465
0.0148246
-0.000212761
0.0148958
-0.000188767
0.0149563
-0.000162623
0.0150051
-0.000134545
0.0150458
-0.000112743
0.0150831
-9.89937e-05
0.0151057
-6.57771e-05
0.0151138
-3.19531e-05
0.0151086
2.24357e-06
0.0150915
3.67638e-05
0.0150662
6.84012e-05
0.01503
0.000122522
0.0149777
0.000175609
0.0149104
0.0002092
0.0148296
0.000224432
0.0147369
0.000220156
0.000196624
0.0146386
0.00791342
-0.0038417
-0.00686281
0.00886129
-0.003156
0.0097264
-0.00211756
0.0105289
-0.00147921
0.0112191
-0.000995398
0.0118695
-0.000626756
0.0124197
-0.000422452
0.0128983
-0.000276497
0.0133112
-0.000122821
0.0136521
-0.000120198
0.0139376
-0.000143376
0.0141734
-0.000112329
0.0143643
-9.83014e-05
0.0145436
-0.000230802
0.0147024
-0.000256559
0.0148428
-0.000265034
0.0149695
-0.000271822
0.0151015
-0.000330822
0.0152359
-0.000366984
0.0153618
-0.000356561
0.0154796
-0.00034089
0.015589
-0.00031977
0.0157025
-0.000336017
0.0158102
-0.00032041
0.0159058
-0.000284389
0.0159887
-0.000245557
0.0160582
-0.000204003
0.0161171
-0.000171636
0.0161687
-0.000150669
0.016204
-0.000100997
0.0162224
-5.03931e-05
0.0162236
1.04338e-06
0.0162072
5.31252e-05
0.0161763
9.93833e-05
0.0161311
0.000167699
0.0160681
0.000238642
0.0159893
0.00028793
0.0158966
0.000317145
0.01579
0.000326736
0.000317062
0.0156696
0.00716392
-0.00473291
-0.0062727
0.00803432
-0.00402639
0.00887908
-0.00296233
0.00969459
-0.00229472
0.0104318
-0.00173257
0.0111337
-0.00132874
0.0117578
-0.0010465
0.0123246
-0.000843287
0.0128399
-0.000638109
0.0132931
-0.000573429
0.013695
-0.000545232
0.0140513
-0.000468666
0.0143628
-0.00040983
0.0146443
-0.000512238
0.0148963
-0.000508599
0.0151207
-0.000489474
0.015321
-0.000472112
0.0155108
-0.000520546
0.0156911
-0.000547281
0.0158565
-0.000522027
0.0160083
-0.000492699
0.0161472
-0.000458629
0.0162833
-0.000472174
0.0164101
-0.000447162
0.016523
-0.000397327
0.0166218
-0.000344303
0.0167059
-0.000288119
0.0167778
-0.000243585
0.0168404
-0.00021324
0.0168862
-0.000146741
0.0169147
-7.89511e-05
0.0169257
-9.95798e-06
0.0169187
6.01198e-05
0.0168957
0.000122367
0.016857
0.000206418
0.0167987
0.000296922
0.0167219
0.000364768
0.0166276
0.000411421
0.0165165
0.000437838
0.000444881
0.0163887
0.00681832
-0.00555524
-0.00599599
0.0076351
-0.00484318
0.0084439
-0.00377113
0.00924782
-0.00309863
0.00999722
-0.00248197
0.0107308
-0.00206231
0.0113989
-0.0017146
0.0120199
-0.00146431
0.0126008
-0.00121899
0.0131226
-0.0010952
0.0135941
-0.00101675
0.0140241
-0.000898717
0.0144118
-0.000797465
0.0147601
-0.000860624
0.0150763
-0.000824801
0.0153623
-0.000775391
0.0156201
-0.000729959
0.0158587
-0.000759132
0.0160806
-0.000769202
0.0162833
-0.00072475
0.0164681
-0.000677483
0.016636
-0.000626465
0.0167953
-0.000631485
0.0169417
-0.000593557
0.017072
-0.000527674
0.0171862
-0.000458468
0.0172839
-0.000385887
0.0173675
-0.000327125
0.0174392
-0.000284994
0.0174931
-0.000200588
0.0175287
-0.000114561
0.0175458
-2.70172e-05
0.017544
6.19129e-05
0.0175252
0.000141175
0.0174898
0.000241776
0.0174345
0.000352247
0.0173596
0.000439674
0.0172655
0.000505452
0.0171527
0.000550725
0.000576617
0.0170209
0.00657274
-0.00633632
-0.00579166
0.00735502
-0.00562546
0.00813671
-0.00455282
0.00892259
-0.00388452
0.00967248
-0.00323185
0.0104189
-0.00280874
0.0111159
-0.00241159
0.0117772
-0.0021256
0.0124086
-0.00185042
0.0129875
-0.0016741
0.0135198
-0.001549
0.0140143
-0.00139329
0.014469
-0.00125208
0.0148789
-0.00127052
0.0152545
-0.00120044
0.0155977
-0.00111859
0.0159098
-0.00104203
0.0161956
-0.00104501
0.0164588
-0.00103234
0.0166989
-0.000964844
0.0169172
-0.000895763
0.0171147
-0.000824017
0.0172982
-0.000814935
0.0174651
-0.000760475
0.0176135
-0.000676052
0.0177434
-0.000588401
0.0178549
-0.000497383
0.0179499
-0.000422133
0.0180307
-0.000365759
0.0180922
-0.00026216
0.0181344
-0.000156706
0.0181569
-4.95038e-05
0.0181595
5.93061e-05
0.0181438
0.000156808
0.0181105
0.000275139
0.0180564
0.000406353
0.0179817
0.000514346
0.0178867
0.00060046
0.0177715
0.000665902
0.000711907
0.0176362
0.00642541
-0.00709781
-0.00566391
0.00718944
-0.00638949
0.00795467
-0.00531805
0.00872654
-0.00465639
0.00947254
-0.00397786
0.0102214
-0.00355756
0.0109328
-0.003123
0.0116179
-0.00281074
0.0122822
-0.00251471
0.0129018
-0.00229371
0.0134802
-0.00212735
0.0140258
-0.00193897
0.0145355
-0.00176178
0.0149986
-0.00173361
0.0154272
-0.00162907
0.0158228
-0.00151419
0.0161858
-0.001405
0.0165177
-0.0013769
0.0168222
-0.00133689
0.0171007
-0.00124331
0.0173541
-0.00114917
0.0175835
-0.00105335
0.0177936
-0.00102504
0.0179836
-0.000950513
0.0181525
-0.00084494
0.0183005
-0.000736391
0.0184277
-0.000624645
0.018536
-0.000530393
0.0186273
-0.000457088
0.0186979
-0.000332708
0.0187475
-0.000206335
0.0187761
-7.80805e-05
0.0187835
5.19104e-05
0.0187712
0.000169113
0.0187397
0.000306586
0.0186865
0.000459555
0.0186117
0.000589194
0.0185153
0.000696802
0.0183976
0.000783594
0.000850831
0.0182587
0.00633802
-0.00785253
-0.0055833
0.00709536
-0.00714683
0.00785403
-0.00607672
0.00861904
-0.0054214
0.00936395
-0.00472277
0.0101137
-0.00430728
0.0108341
-0.00384347
0.0115348
-0.00351138
0.0122208
-0.0032007
0.0128694
-0.00294234
0.0134824
-0.00274038
0.0140677
-0.00252423
0.0146215
-0.00231554
0.0151294
-0.00224158
0.0156041
-0.00210372
0.0160464
-0.00195646
0.0164558
-0.00181445
0.0168312
-0.00175227
0.017176
-0.00168175
0.0174927
-0.00155993
0.0177817
-0.00143824
0.018044
-0.00131562
0.0182825
-0.00126357
0.0184977
-0.00116572
0.0186893
-0.00103648
0.0188575
-0.000904593
0.0190026
-0.000769773
0.0191261
-0.000653908
0.0192299
-0.000560857
0.0193111
-0.000413924
0.0193697
-0.000264953
0.0194057
-0.000114055
0.019419
3.86215e-05
0.0194109
0.000177176
0.0193821
0.000335394
0.0193304
0.00051132
0.0192557
0.000663831
0.0191583
0.000794178
0.0190384
0.000903552
0.000993191
0.018896
0.00629587
-0.00860932
-0.00553908
0.00705485
-0.00790581
0.00781469
-0.00683656
0.00857969
-0.0061864
0.00932788
-0.00547095
0.0100808
-0.0050602
0.0108097
-0.00457235
0.0115226
-0.00422435
0.0122247
-0.00390274
0.0128951
-0.0036128
0.0135348
-0.00338008
0.0141509
-0.00314026
0.0147395
-0.00290414
0.0152846
-0.00278671
0.0157983
-0.00261736
0.0162809
-0.00243911
0.0167315
-0.00226503
0.0171466
-0.00216737
0.0175293
-0.00206446
0.0178824
-0.00191308
0.0182063
-0.00176212
0.0185014
-0.00161066
0.018769
-0.0015312
0.0190105
-0.00140721
0.019226
-0.00125204
0.019416
-0.00109453
0.0195806
-0.000934384
0.019721
-0.000794353
0.0198389
-0.000678757
0.0199324
-0.00050741
0.0200015
-0.000334056
0.0200463
-0.0001588
0.0200667
1.82079e-05
0.0200639
0.000179905
0.0200387
0.000360608
0.0199892
0.000560837
0.0199155
0.000737574
0.0198176
0.000892006
0.0196959
0.00102528
0.00113859
0.0195505
0.00628798
-0.00937449
-0.00552281
0.00705476
-0.0086726
0.0078218
-0.0076036
0.0085926
-0.0069572
0.00934854
-0.0062269
0.0101082
-0.00581988
0.0108471
-0.00531127
0.0115724
-0.00494961
0.0122887
-0.00461899
0.0129775
-0.00430168
0.0136394
-0.0040419
0.0142805
-0.00378139
0.0148975
-0.00352111
0.0154738
-0.00336302
0.0160205
-0.00316414
0.0165379
-0.00295649
0.0170244
-0.00275152
0.0174751
-0.00261807
0.0178926
-0.0024819
0.0182798
-0.00230026
0.0186366
-0.00211896
0.0189632
-0.00193727
0.0192595
-0.00182755
0.0195275
-0.00167511
0.0197675
-0.00149206
0.0199799
-0.00130692
0.0201649
-0.00111939
0.0203233
-0.000952808
0.0204566
-0.000811998
0.0205635
-0.00061438
0.0206443
-0.000414828
0.020699
-0.000213447
0.0207276
-1.0393e-05
0.0207312
0.000176309
0.0207104
0.000381318
0.020664
0.0006073
0.0205919
0.000809708
0.0204942
0.000989658
0.0203712
0.00114824
0.00128658
0.0202233
0.00630746
-0.0101528
-0.00552916
0.00708679
-0.00945193
0.00786575
-0.00838255
0.00864711
-0.00773856
0.00941484
-0.00699463
0.010185
-0.00659
0.0109364
-0.00606273
0.0116754
-0.00568857
0.0124061
-0.0053497
0.0131123
-0.00500795
0.0137942
-0.00472376
0.0144574
-0.00444455
0.0150987
-0.00416241
0.0157021
-0.00396641
0.0162776
-0.0037397
0.0168253
-0.00350415
0.0173433
-0.00326951
0.0178258
-0.00310062
0.0182749
-0.00293093
0.0186934
-0.00271877
0.0190809
-0.00250652
0.0194373
-0.00229366
0.0197614
-0.00215158
0.0200551
-0.00196888
0.0203194
-0.00175632
0.0205543
-0.0015418
0.0207599
-0.00132505
0.0209369
-0.00112977
0.0210862
-0.000961284
0.0212074
-0.000735594
0.0213006
-0.000508059
0.021366
-0.000278794
0.0214035
-4.79661e-05
0.0214142
0.00016562
0.0213987
0.000396793
0.021356
0.00065004
0.0212861
0.000879628
0.0211892
0.0010866
0.0210654
0.00127196
0.00143676
0.0209153
0.00634955
-0.010948
-0.00555433
0.00714521
-0.0102476
0.00793992
-0.00917726
0.00873579
-0.00853444
0.0095188
-0.00777764
0.0103028
-0.007374
0.0110694
-0.00682938
0.0118241
-0.00644323
0.0125706
-0.00609616
0.0132946
-0.00573193
0.0139959
-0.00542515
0.0146798
-0.00512842
0.0153433
-0.00482593
0.0159713
-0.00459437
0.0165728
-0.00434118
0.0171475
-0.00407891
0.0176937
-0.00381569
0.018205
-0.00361196
0.018683
-0.00340884
0.0191303
-0.00316608
0.0195463
-0.00292254
0.0199305
-0.00267791
0.0202809
-0.00250195
0.0205996
-0.00228755
0.0208874
-0.00204413
0.0211443
-0.00179874
0.0213705
-0.00155118
0.021566
-0.00132528
0.0217316
-0.00112689
0.0218674
-0.000871412
0.0219735
-0.000614175
0.02205
-0.00035531
0.0220971
-9.50038e-05
0.0221154
0.000147327
0.0221056
0.000406521
0.0220671
0.000688583
0.0219998
0.000946901
0.021904
0.00118242
0.0217799
0.00139609
0.00158884
0.0216278
0.00641089
-0.0117633
-0.00559565
0.00722605
-0.0110627
0.0080397
-0.00999091
0.0088534
-0.00934814
0.00965473
-0.00857898
0.0104557
-0.00817494
0.0112401
-0.00761382
0.0120127
-0.00721578
0.0127767
-0.00686017
0.0135194
-0.00647472
0.0142408
-0.00614648
0.0149452
-0.0058328
0.0156301
-0.00551085
0.0162813
-0.00524562
0.0169071
-0.0049669
0.0175069
-0.00467874
0.0180789
-0.00438774
0.0186168
-0.00414983
0.0191214
-0.00391349
0.0195955
-0.00364011
0.020038
-0.00336507
0.0204483
-0.00308823
0.0208237
-0.00287728
0.0211661
-0.00263003
0.0214766
-0.00235461
0.0217549
-0.00207706
0.022001
-0.00179728
0.0222148
-0.00153907
0.0223967
-0.00130876
0.0225472
-0.00102189
0.0226663
-0.000733311
0.0227542
-0.000443189
0.0228109
-0.00015174
0.0228371
0.000121152
0.0228334
0.000410201
0.0227994
0.000722646
0.022735
0.00101127
0.0226405
0.00127691
0.0225162
0.00152043
0.00174267
0.0223623
0.00648911
-0.0126012
-0.00565117
0.00732647
-0.0119001
0.00816182
-0.0108263
0.00899622
-0.0101825
0.00981855
-0.00940131
0.0106392
-0.00899558
0.0114438
-0.00841847
0.0122365
-0.00800839
0.0130199
-0.00764364
0.013783
-0.00723775
0.0145252
-0.00688873
0.0152507
-0.00655825
0.015957
-0.00621719
0.0166311
-0.00591976
0.0172803
-0.00561606
0.0179041
-0.0053025
0.0185006
-0.00498423
0.0190634
-0.00471269
0.0195933
-0.00444332
0.0200924
-0.00413928
0.0205599
-0.00383253
0.0209948
-0.00352312
0.0213938
-0.00327634
0.0217591
-0.00299527
0.0220913
-0.00268684
0.0223902
-0.002376
0.0226557
-0.00206272
0.0228873
-0.00177068
0.0230852
-0.00150668
0.0232502
-0.00118688
0.0233823
-0.000865389
0.0234815
-0.000542412
0.023548
-0.000218201
0.0235821
8.7016e-05
0.0235846
0.000407716
0.0235551
0.000752119
0.0234938
0.00107262
0.0234007
0.00136997
0.0232762
0.00164492
0.0018982
0.0231207
0.00658247
-0.0134642
-0.00571943
0.00744445
-0.0127621
0.00830394
-0.0116858
0.00916158
-0.0110402
0.0100073
-0.0102471
0.0108502
-0.00983842
0.0116773
-0.00924559
0.0124921
-0.00882317
0.013297
-0.00844856
0.0140819
-0.00802263
0.0148463
-0.00765316
0.0155937
-0.00730569
0.0163221
-0.00694555
0.0170193
-0.00661696
0.0176918
-0.00628853
0.018339
-0.00594975
0.0189592
-0.00560442
0.0195462
-0.00529964
0.0201002
-0.00499734
0.0206234
-0.00466248
0.0211146
-0.00432377
0.0215729
-0.00398142
0.0219947
-0.00369812
0.0223818
-0.00338239
0.022735
-0.00304001
0.0230538
-0.00269481
0.0233379
-0.00234688
0.0235869
-0.00201962
0.0238005
-0.00172028
0.0239797
-0.00136611
0.0241245
-0.0010102
0.0242349
-0.000652816
0.024311
-0.000294269
0.024353
4.4985e-05
0.0243616
0.000399094
0.0243367
0.000777032
0.0242783
0.001131
0.0241867
0.00146165
0.024062
0.00176962
0.00205554
0.0239046
0.00668969
-0.0143545
-0.00579939
0.00757848
-0.0136509
0.00846436
-0.0125716
0.00934754
-0.0119234
0.0102189
-0.0111184
0.0110862
-0.0107057
0.0119379
-0.0100973
0.0127769
-0.00966213
0.0136052
-0.00927686
0.0144136
-0.00883105
0.0152016
-0.00844118
0.0159723
-0.00807634
0.0167236
-0.00769684
0.0174444
-0.0073378
0.0181405
-0.00698462
0.0188113
-0.00662053
0.019455
-0.00624811
0.0200656
-0.00591029
0.0206433
-0.00557503
0.0211899
-0.00520907
0.0217042
-0.00483804
0.022185
-0.0044623
0.0226288
-0.00414187
0.0230371
-0.00379066
0.0234105
-0.00341343
0.0237485
-0.00303286
0.0240508
-0.00264916
0.0243166
-0.00228538
0.0245455
-0.00194919
0.0247386
-0.00155924
0.0248959
-0.00116745
0.0250172
-0.00077416
0.0251027
-0.000379731
0.0251524
-4.76986e-06
0.025167
0.00038447
0.0251466
0.000797521
0.025091
0.00118655
0.0250006
0.0015521
0.0248755
0.00189469
0.00221485
0.0247162
0.00680983
-0.0152742
-0.00589021
0.00772751
-0.0145685
0.00864184
-0.013486
0.00955271
-0.0128342
0.0104517
-0.0120174
0.0113457
-0.0115997
0.012224
-0.0109756
0.0130891
-0.0105272
0.0139426
-0.0101304
0.0147763
-0.0096647
0.0155894
-0.0092543
0.0163846
-0.00887152
0.01716
-0.00847221
0.0179053
-0.00808313
0.0186256
-0.00770495
0.0193203
-0.00731526
0.0199877
-0.00691548
0.0206221
-0.00654463
0.0212232
-0.00617623
0.0217929
-0.00577874
0.0223298
-0.00537494
0.0228328
-0.00496527
0.023298
-0.00460708
0.0237269
-0.00421958
0.0241201
-0.00380659
0.0244769
-0.00338964
0.0247968
-0.00296907
0.0250789
-0.00256753
0.0253228
-0.00219306
0.0255295
-0.00176595
0.0256989
-0.00133685
0.0258309
-0.000906158
0.0259255
-0.000474321
0.0259827
-6.20151e-05
0.0260032
0.000364052
0.0259869
0.0008138
0.0259339
0.0012395
0.0258445
0.00164155
0.0257188
0.00202038
0.0023764
0.0255572
0.00694221
-0.016225
-0.00599133
0.00789074
-0.0155171
0.00883552
-0.0144307
0.00977611
-0.0137748
0.0107048
-0.0129461
0.0116274
-0.0125222
0.0125342
-0.0118825
0.0134273
-0.0114203
0.0143079
-0.0110111
0.0151685
-0.0105253
0.0160083
-0.010094
0.0168294
-0.00969266
0.0176301
-0.00927293
0.018401
-0.00885398
0.0191464
-0.00845038
0.0198657
-0.00803459
0.0205573
-0.00760701
0.0212156
-0.00720296
0.0218405
-0.00680109
0.0224332
-0.00637152
0.0229926
-0.00593433
0.0235175
-0.00549011
0.0240039
-0.00509351
0.0244532
-0.00466887
0.0248657
-0.00421915
0.0252409
-0.0037648
0.0255781
-0.00330624
0.0258762
-0.00286571
0.0261348
-0.00245158
0.0263547
-0.00198594
0.026536
-0.00151809
0.0266784
-0.00104852
0.0267818
-0.000577757
0.0268463
-0.000126486
0.0268722
0.000338089
0.0268599
0.000826131
0.0268093
0.0012901
0.0267205
0.00173029
0.0265939
0.002147
0.00254053
0.0264298
0.00708634
-0.0172091
-0.00610229
0.00806764
-0.0164984
0.00904478
-0.0154079
0.0100171
-0.0147471
0.0109773
-0.0139063
0.0119304
-0.0134754
0.0128677
-0.0128197
0.0137906
-0.0123432
0.0147002
-0.0119207
0.0155893
-0.0114145
0.0164573
-0.010962
0.0173059
-0.0105412
0.0181333
-0.0101004
0.0189308
-0.00965151
0.0197023
-0.00922191
0.0204471
-0.00877939
0.0211635
-0.0083234
0.0218464
-0.0078858
0.0224953
-0.00744998
0.0231114
-0.00698764
0.0236934
-0.00651637
0.0242401
-0.00603682
0.0247477
-0.00560109
0.0252173
-0.00513841
0.0256491
-0.00465094
0.0260424
-0.00415811
0.0263965
-0.00366042
0.0267105
-0.00317967
0.0269834
-0.00272451
0.0272164
-0.00221895
0.0274093
-0.00171091
0.0275617
-0.00120099
0.0276737
-0.00068976
0.0277451
-0.000197907
0.0277764
0.000306852
0.0277677
0.000834805
0.0277191
0.00133868
0.0276308
0.00181866
0.0275029
0.00227491
0.00270761
0.0273358
0.00724189
-0.0182282
-0.00622281
0.00825783
-0.0175143
0.00926923
-0.0164193
0.0102751
-0.015753
0.0112687
-0.0148999
0.0122544
-0.0144611
0.0132239
-0.0137892
0.0141783
-0.0132976
0.0151186
-0.012861
0.0160381
-0.0123339
0.0169359
-0.0118597
0.0178134
-0.0114188
0.0186689
-0.0109559
0.0194944
-0.010477
0.0202931
-0.0100207
0.0210644
-0.00955065
0.0218065
-0.0090655
0.0225145
-0.00859386
0.023188
-0.00812348
0.023828
-0.00762756
0.024433
-0.00712135
0.0250018
-0.00660563
0.0255306
-0.00612996
0.0260205
-0.00562826
0.0264715
-0.00510197
0.0268829
-0.0045695
0.027254
-0.00403148
0.0275835
-0.00350924
0.0278707
-0.00301168
0.0281166
-0.00246479
0.0283208
-0.0019151
0.0284831
-0.00136331
0.0286034
-0.000810071
0.0286815
-0.000276009
0.0287177
0.000270619
0.0287124
0.000840127
0.0286655
0.00138558
0.0285772
0.00190701
0.0284476
0.00240449
0.00287807
0.0282771
0.00740864
-0.0192841
-0.00635267
0.0084611
-0.0185668
0.00950862
-0.0174668
0.01055
-0.0167943
0.0115789
-0.0159288
0.0125989
-0.0154811
0.0136024
-0.0147927
0.0145903
-0.0142855
0.0155631
-0.0138338
0.0165145
-0.0132854
0.0174437
-0.0127889
0.0183517
-0.0123268
0.0192368
-0.0118411
0.0200915
-0.0113316
0.0209187
-0.0108479
0.0217175
-0.0103495
0.0224863
-0.00983429
0.0232204
-0.00932799
0.0239192
-0.0088223
0.0245835
-0.00829187
0.025212
-0.00774978
0.0258032
-0.0071969
0.0263537
-0.0066804
0.0268641
-0.00613862
0.0273344
-0.00557235
0.027764
-0.00499904
0.0281519
-0.00441944
0.0284971
-0.00385439
0.0287984
-0.00331303
0.029057
-0.00272334
0.0292724
-0.00213051
0.0294443
-0.00153529
0.0295727
-0.000938459
0.0296573
-0.00036054
0.0296982
0.000229661
0.029696
0.000842401
0.0296504
0.00143111
0.0295617
0.00199572
0.02943
0.00253615
0.00305234
0.0292558
0.00758649
-0.0203789
-0.00649176
0.00867733
-0.0196576
0.00976285
-0.0185523
0.0108416
-0.017873
0.0119076
-0.0169948
0.0129638
-0.0165373
0.0140032
-0.0158321
0.0150263
-0.0153086
0.0160333
-0.0148408
0.0170185
-0.0142705
0.0179806
-0.013751
0.0189207
-0.0132668
0.0198369
-0.0127573
0.0207222
-0.0122169
0.0215791
-0.0117048
0.0224067
-0.011177
0.0232033
-0.0106309
0.0239644
-0.0100891
0.0246894
-0.00954728
0.0253788
-0.00898129
0.0260313
-0.00840228
0.0266456
-0.00781116
0.027218
-0.00725283
0.0277492
-0.00666982
0.0282392
-0.00606232
0.028687
-0.0054469
0.029092
-0.00482437
0.0294527
-0.00421514
0.0297682
-0.00362855
0.0300394
-0.00299455
0.0302659
-0.00235701
0.0304474
-0.00171679
0.0305837
-0.00107473
0.0306745
-0.000451274
0.0307199
0.000184233
0.0307204
0.000841927
0.0306758
0.00147564
0.0305864
0.00208517
0.0304522
0.00267032
0.00323088
0.0302737
0.0077754
-0.0215143
-0.00664002
0.00890652
-0.0207887
0.0100319
-0.0196777
0.0111499
-0.0189911
0.0122549
-0.0180998
0.0133493
-0.0176317
0.0144264
-0.0169092
0.0154864
-0.0163686
0.0165295
-0.0158839
0.01755
-0.0152911
0.0185468
-0.0147478
0.0195206
-0.0142406
0.0204695
-0.0137062
0.0213868
-0.0131343
0.0222748
-0.0125927
0.0231323
-0.0120346
0.0239578
-0.0114564
0.024747
-0.0108783
0.0254991
-0.0102994
0.0262145
-0.00969668
0.0268918
-0.00907957
0.0275297
-0.00844903
0.0281246
-0.00784779
0.0286771
-0.00722231
0.029187
-0.00657226
0.0296535
-0.00591334
0.0300756
-0.00524648
0.0304521
-0.00459163
0.0307818
-0.00395831
0.0310657
-0.00327843
0.0313033
-0.00259458
0.0314942
-0.0019077
0.0316382
-0.00121874
0.031735
-0.000548015
0.0317846
0.000134573
0.0317876
0.000838991
0.0317437
0.0015195
0.0316531
0.00217574
0.031516
0.00280741
0.00341417
0.0313327
0.00797541
-0.0226922
-0.00679745
0.00914873
-0.021962
0.0103159
-0.020845
0.0114752
-0.0201503
0.012621
-0.0192456
0.0137554
-0.0187661
0.014872
-0.0180258
0.0159708
-0.0174675
0.0170517
-0.0169648
0.0181094
-0.0163488
0.0191426
-0.015781
0.0201516
-0.0152496
0.0211348
-0.0146893
0.0220856
-0.0140851
0.023006
-0.0135131
0.0238949
-0.0129235
0.0247506
-0.012312
0.025569
-0.0116967
0.0263492
-0.0110796
0.0270915
-0.0104389
0.0277944
-0.00978249
0.0284566
-0.00911125
0.0290747
-0.00846591
0.0296491
-0.00779663
0.0301794
-0.0071026
0.0306648
-0.00639874
0.0311044
-0.00568605
0.0314968
-0.00498407
0.031841
-0.00430246
0.0321376
-0.00357506
0.0323862
-0.00284322
0.0325865
-0.00210797
0.0327381
-0.00137037
0.0328407
-0.0006506
0.0328944
8.08927e-05
0.0328995
0.000833863
0.032856
0.001563
0.0327639
0.00226782
0.0326235
0.00294787
0.00360269
0.032435
0.00818663
-0.0239147
-0.00696413
0.0094041
-0.0231795
0.0106151
-0.0220559
0.0118174
-0.0213526
0.0130061
-0.0204343
0.0141824
-0.0199424
0.0153404
-0.0191839
0.0164799
-0.018607
0.0176005
-0.0180853
0.0186971
-0.0174454
0.0197683
-0.0168522
0.0208144
-0.0162956
0.0218333
-0.0157083
0.0228192
-0.0150711
0.0237736
-0.0144675
0.0246952
-0.0138451
0.0255824
-0.0131992
0.0264311
-0.0125455
0.0272406
-0.011889
0.0280107
-0.0112091
0.0287402
-0.010512
0.0294276
-0.00979863
0.0300696
-0.0091079
0.0306663
-0.00839341
0.0312176
-0.0076539
0.0317224
-0.00690354
0.0321798
-0.00614345
0.0325885
-0.00539273
0.0329472
-0.00466121
0.0332568
-0.00388458
0.0335165
-0.00310299
0.0337262
-0.0023176
0.0338853
-0.00152955
0.0339936
-0.000758893
0.0340511
2.33834e-05
0.0340582
0.000826795
0.0340148
0.00160646
0.0339208
0.00236176
0.0337766
0.00309212
0.00379693
0.0335823
0.00840918
-0.0251838
-0.00714014
0.00967283
-0.0244432
0.0109296
-0.0233127
0.0121771
-0.0226002
0.0134104
-0.0216676
0.0146307
-0.0211627
0.0158321
-0.0203853
0.0170141
-0.019789
0.0181762
-0.0192474
0.0193136
-0.0185827
0.0204246
-0.0179632
0.0215093
-0.0173804
0.0225658
-0.0167648
0.0235884
-0.0160936
0.0245781
-0.0154573
0.0255339
-0.0148008
0.0264539
-0.0141192
0.0273343
-0.013426
0.0281742
-0.0127288
0.0289733
-0.0120083
0.0297303
-0.011269
0.0304438
-0.0105121
0.0311104
-0.00977457
0.0317304
-0.00901335
0.0323032
-0.00822675
0.0328279
-0.00742827
0.0333036
-0.00661911
0.0337288
-0.00581798
0.0341025
-0.00503483
0.0344251
-0.00420717
0.0346961
-0.00337401
0.0349151
-0.00253662
0.0350818
-0.00169625
0.0351957
-0.000872795
0.0352569
-3.77897e-05
0.0352657
0.000818021
0.0352219
0.00165018
0.0351257
0.00245795
0.0349773
0.0032406
0.00399738
0.0347768
0.00864328
-0.0265014
-0.00732563
0.00995515
-0.025755
0.0112597
-0.0246172
0.0125544
-0.0238949
0.0138345
-0.0229478
0.0151007
-0.0224288
0.0163474
-0.021632
0.0175739
-0.0210155
0.0187795
-0.020453
0.0199594
-0.0197627
0.0211121
-0.0191159
0.0222373
-0.0185055
0.023333
-0.0178605
0.0243938
-0.0171544
0.0254206
-0.016484
0.026412
-0.0157922
0.0273662
-0.0150734
0.0282797
-0.0143394
0.0291511
-0.0136002
0.0299804
-0.0128375
0.030766
-0.0120546
0.0315065
-0.0112526
0.0321987
-0.0104668
0.0328426
-0.00965722
0.0334377
-0.00882185
0.0339829
-0.00797352
0.0344773
-0.00711353
0.0349196
-0.00626022
0.0353084
-0.00542366
0.0356443
-0.00454308
0.0359267
-0.00365645
0.0361553
-0.00276513
0.0363295
-0.00187046
0.0364489
-0.000992235
0.0365136
-0.000102486
0.0365239
0.000807755
0.0364796
0.00169445
0.0363808
0.00255673
0.0362277
0.00339372
0.00420453
0.0360205
0.00888916
-0.0278698
-0.00752077
0.0102514
-0.0271172
0.0116058
-0.0259717
0.0129499
-0.0252389
0.0142788
-0.0242767
0.0155929
-0.0237429
0.016887
-0.022926
0.01816
-0.0222885
0.0194109
-0.0217039
0.0206354
-0.0209872
0.0218316
-0.0203121
0.0229991
-0.019673
0.0241358
-0.0189972
0.0252365
-0.0182552
0.0263019
-0.0175494
0.0273305
-0.0168208
0.0283205
-0.0160634
0.0292683
-0.0152872
0.0301727
-0.0145046
0.0310333
-0.0136982
0.0318486
-0.0128699
0.0326172
-0.0120211
0.0333359
-0.0111855
0.0340045
-0.0103259
0.0346226
-0.00943994
0.035189
-0.00853994
0.0357028
-0.00762728
0.0361625
-0.00671992
0.0365669
-0.00582806
0.0369164
-0.0048926
0.0372105
-0.00395051
0.0374486
-0.00300324
0.0376304
-0.00205224
0.0377553
-0.00111717
0.0378234
-0.000170588
0.037835
0.000796194
0.0377899
0.00173955
0.0376881
0.00265846
0.03753
0.00355191
0.00441887
0.0373156
0.00914709
-0.0292911
-0.00772576
0.0105618
-0.028532
0.0119684
-0.0273782
0.0133639
-0.0266344
0.0147438
-0.0256567
0.016108
-0.0251071
0.0174515
-0.0242695
0.018773
-0.02361
0.0200714
-0.0230024
0.0213423
-0.0222581
0.022584
-0.0215537
0.0237956
-0.0208846
0.0249751
-0.0201767
0.0261175
-0.0193976
0.0272232
-0.0186551
0.0282906
-0.0178882
0.0293178
-0.0170907
0.0303015
-0.0162708
0.0312402
-0.0154433
0.0321334
-0.0145914
0.0329797
-0.0137161
0.0337774
-0.0128188
0.0345235
-0.0119317
0.0352179
-0.0110202
0.0358598
-0.0100818
0.0364481
-0.00912826
0.0369818
-0.00816097
0.0374595
-0.0071976
0.0378799
-0.00624848
0.0382434
-0.00525608
0.0385493
-0.00425644
0.0387972
-0.00325111
0.0389866
-0.00224165
0.039117
-0.00124759
0.0391884
-0.000242001
0.0392011
0.000783514
0.0391549
0.00178572
0.0390499
0.00276347
0.0388862
0.00371559
0.00464091
0.0386642
0.00941739
-0.0307677
-0.00794086
0.0108869
-0.0300015
0.0123478
-0.0288391
0.013797
-0.0280836
0.0152301
-0.0270898
0.0166466
-0.0265236
0.0180416
-0.0256645
0.0194138
-0.0249822
0.0207617
-0.0243503
0.0220812
-0.0235776
0.0233702
-0.0228427
0.0246278
-0.0221423
0.0258521
-0.021401
0.027038
-0.0205835
0.0281857
-0.0198028
0.0292935
-0.0189961
0.0303597
-0.0181568
0.0313806
-0.0172918
0.032355
-0.0164177
0.0332822
-0.0155186
0.0341606
-0.0145945
0.0349887
-0.0136468
0.0357634
-0.0127064
0.0364844
-0.0117412
0.0371509
-0.0107484
0.0377619
-0.00973923
0.0383162
-0.00871528
0.0388124
-0.00769385
0.0392493
-0.00668538
0.0396272
-0.0056339
0.0399453
-0.00457453
0.0402031
-0.00350894
0.0404002
-0.00243879
0.0405362
-0.00138352
0.0406108
-0.000316652
0.0406244
0.000769879
0.0405769
0.00183323
0.0404683
0.0028721
0.0402987
0.00388519
0.00487114
0.0400685
0.0097004
-0.0323018
-0.00816633
0.0112271
-0.0315282
0.0127446
-0.0303567
0.0142498
-0.0295888
0.0157384
-0.0285784
0.0172094
-0.0279946
0.0186582
-0.0271133
0.0200832
-0.0264071
0.0214828
-0.0257499
0.0228528
-0.0249476
0.0241913
-0.0241812
0.025497
-0.023448
0.0267679
-0.0226718
0.0279991
-0.0218147
0.0291906
-0.0209943
0.0303407
-0.0201462
0.0314474
-0.0192635
0.0325072
-0.0183517
0.0335188
-0.0174293
0.0344814
-0.0164812
0.0353933
-0.0155064
0.0362528
-0.0145064
0.0370572
-0.0135107
0.0378058
-0.0124898
0.038498
-0.0114405
0.0391324
-0.0103737
0.0397081
-0.00929092
0.0402235
-0.00820928
0.0406774
-0.00713931
0.04107
-0.00602649
0.0414006
-0.00490511
0.0416686
-0.00377695
0.0418736
-0.0026438
0.0420151
-0.00152497
0.0420929
-0.000394484
0.0421073
0.000755437
0.0420583
0.0018823
0.0419457
0.00298468
0.0417698
0.00406111
0.00511008
0.0415308
0.0099965
-0.0338958
-0.00840245
0.0115827
-0.0331144
0.0131593
-0.0319333
0.0147229
-0.0311524
0.0162693
-0.0301248
0.0177972
-0.0295225
0.0193021
-0.0286182
0.0207821
-0.0278872
0.0222356
-0.0272033
0.0236584
-0.0263705
0.0250484
-0.0255712
0.0264043
-0.0248039
0.0277238
-0.0239913
0.0290023
-0.0230933
0.0302395
-0.0222315
0.0314336
-0.0213402
0.0325825
-0.0204124
0.0336829
-0.0194521
0.0347332
-0.0184796
0.0357326
-0.0174806
0.0366793
-0.0164531
0.0375717
-0.0153988
0.0384068
-0.0143459
0.0391842
-0.0132672
0.0399029
-0.0121593
0.0405617
-0.0110325
0.0411595
-0.00988867
0.0416948
-0.00874457
0.0421663
-0.00761081
0.0425741
-0.0064343
0.0429175
-0.00524854
0.043196
-0.00405542
0.043409
-0.00285684
0.0435561
-0.00167203
0.043637
-0.000475462
0.0436521
0.000740321
0.0436013
0.00193318
0.0434844
0.00310154
0.0433017
0.00424378
0.00535823
0.0430536
0.0103061
-0.0355523
-0.00864956
0.0119543
-0.0347627
0.0135925
-0.0335715
0.015217
-0.0327768
0.0168236
-0.0317314
0.0184108
-0.0311097
0.0199741
-0.0301815
0.0215116
-0.0294246
0.0230212
-0.028713
0.0244991
-0.0278483
0.0259428
-0.0270149
0.0273509
-0.0262121
0.0287212
-0.0253616
0.030049
-0.0244211
0.0313338
-0.0235163
0.0325737
-0.0225802
0.0337666
-0.0216053
0.0349093
-0.0205947
0.0359999
-0.0195702
0.0370377
-0.0185183
0.0380206
-0.0174361
0.0389471
-0.0163253
0.0398143
-0.0152131
0.0406216
-0.0140744
0.0413679
-0.0129056
0.0420519
-0.0117166
0.0426726
-0.0105094
0.0432285
-0.00930042
0.0437182
-0.00810049
0.0441417
-0.00685784
0.0444984
-0.00560521
0.0447876
-0.00434462
0.0450088
-0.00307809
0.0451616
-0.00182476
0.0452457
-0.000559565
0.0452613
0.000724653
0.0452084
0.00198608
0.045087
0.003223
0.0448971
0.00443363
0.00561613
0.0446392
0.0106296
-0.037274
-0.00890799
0.0123425
-0.0364756
0.0140448
-0.0352738
0.0157327
-0.0344647
0.0174021
-0.0334008
0.0190511
-0.0327586
0.0206753