/*--------------------------------*- C++ -*----------------------------------*\
| =========                 |                                                 |
| \\      /  F ield         | OpenFOAM: The Open Source CFD Toolbox           |
|  \\    /   O peration     | Version:  3.0.1                                 |
|   \\  /    A nd           | Web:      www.OpenFOAM.org                      |
|    \\/     M anipulation  |                                                 |
\*---------------------------------------------------------------------------*/
FoamFile
{
    version     2.0;
    format      ascii;
    class       volVectorField;
    location    "500";
    object      U;
}
// * * * * * * * * * * * * * * * * * * * * * * * * * * * * * * * * * * * * * //

dimensions      [0 1 -1 0 0 0 0];

internalField   nonuniform List<vector> 
58000
(
(0.446941 1.04332 6.44872e-22)
(0.599091 1.14893 -2.66818e-21)
(0.742135 1.16688 3.28478e-20)
(0.858007 1.12005 -5.66874e-20)
(0.945795 1.03982 2.07045e-20)
(1.00735 0.941929 1.70308e-20)
(1.05354 0.841156 0)
(1.08542 0.746366 -2.21269e-20)
(1.1067 0.655573 5.34083e-20)
(1.12241 0.573843 1.48483e-20)
(1.13386 0.504319 -3.47691e-20)
(1.14142 0.443803 0)
(1.14575 0.389937 0)
(1.15121 0.345703 1.45949e-20)
(1.15333 0.309513 0)
(1.1532 0.278866 -1.3121e-19)
(1.15129 0.25257 1.29906e-19)
(1.14885 0.230364 -1.38737e-20)
(1.14586 0.211879 1.0623e-19)
(1.14196 0.195846 -1.05391e-19)
(1.13762 0.181442 -1.00349e-19)
(1.13258 0.168064 9.95429e-20)
(1.12776 0.155921 0)
(1.12261 0.145035 9.21145e-20)
(1.11702 0.134956 -9.16169e-20)
(1.11116 0.125407 8.79204e-20)
(1.10496 0.116232 3.80629e-21)
(1.0985 0.107416 -8.56341e-20)
(1.09223 0.0992705 0)
(1.0855 0.0917274 5.00688e-21)
(1.07842 0.084557 -4.4555e-20)
(1.07105 0.0777873 8.35704e-20)
(1.06283 0.071449 -7.30084e-22)
(1.05418 0.0656591 -3.60694e-20)
(1.04404 0.0602249 -1.74156e-20)
(1.03149 0.055023 1.87341e-20)
(1.01766 0.0501654 1.14803e-21)
(1.00453 0.0458256 1.12653e-21)
(0.992513 0.0418088 -3.37467e-21)
(0.98652 0.0387244 5.826e-21)
(0.629517 0.605746 -2.58503e-21)
(0.740331 0.664232 4.57781e-21)
(0.844852 0.704928 0)
(0.944396 0.73795 -1.66399e-21)
(1.03645 0.758135 -8.63804e-21)
(1.12027 0.761412 -5.26506e-22)
(1.19212 0.748379 8.5847e-21)
(1.24998 0.724448 1.58174e-20)
(1.29741 0.690381 -1.68901e-20)
(1.33309 0.649506 0)
(1.35745 0.607003 4.69462e-20)
(1.37337 0.56326 -1.35602e-19)
(1.38195 0.518062 -1.35007e-21)
(1.38356 0.475994 6.75179e-21)
(1.38127 0.438282 1.46737e-19)
(1.37609 0.402668 -9.15023e-20)
(1.36857 0.36895 6.35756e-20)
(1.35981 0.338461 -1.45484e-19)
(1.35065 0.31178 -7.46903e-21)
(1.34109 0.287594 7.12641e-20)
(1.33116 0.26509 8.42457e-21)
(1.32098 0.244055 0)
(1.31116 0.225104 0)
(1.30179 0.208247 0)
(1.29252 0.192623 0)
(1.28324 0.177856 7.1311e-20)
(1.27397 0.163861 -6.37159e-20)
(1.2648 0.150733 0)
(1.25607 0.138815 3.40341e-20)
(1.24756 0.127855 -6.64271e-22)
(1.23907 0.117456 -2.62448e-20)
(1.23056 0.107618 -3.73777e-21)
(1.22238 0.0983445 2.52181e-20)
(1.21463 0.0896895 -3.06665e-20)
(1.20755 0.0816181 0)
(1.20067 0.074123 -1.7044e-21)
(1.19375 0.0672282 1.6831e-21)
(1.18704 0.0609783 -8.55464e-22)
(1.18069 0.0550208 -3.32735e-21)
(1.17489 0.0495757 3.45167e-21)
(0.649395 0.55042 4.55219e-22)
(0.700923 0.599755 0)
(0.759853 0.63743 0)
(0.824991 0.665046 -1.34523e-21)
(0.89119 0.681703 -8.2581e-21)
(0.95762 0.68878 1.27021e-20)
(1.02167 0.686913 -1.06405e-20)
(1.08001 0.676234 -1.44886e-20)
(1.13513 0.65773 1.48891e-20)
(1.18335 0.633084 0)
(1.22267 0.604198 0)
(1.25555 0.571717 -9.76351e-21)
(1.28287 0.53629 4.67686e-20)
(1.30273 0.501225 -8.59174e-22)
(1.31663 0.467445 -4.88351e-20)
(1.32636 0.434206 1.3406e-20)
(1.33244 0.40192 6.29676e-20)
(1.33519 0.371997 -1.23723e-20)
(1.33536 0.345086 -4.44197e-20)
(1.33372 0.320225 -3.82827e-20)
(1.33066 0.296863 4.43067e-20)
(1.32646 0.27492 1.21069e-20)
(1.3215 0.255025 0)
(1.31612 0.237144 0)
(1.31032 0.220481 -5.89338e-21)
(1.30414 0.204731 -5.39116e-20)
(1.29764 0.189824 4.80421e-20)
(1.29094 0.175852 -5.73996e-21)
(1.2843 0.163094 -2.97096e-21)
(1.27765 0.15124 -2.93631e-21)
(1.27085 0.1399 0)
(1.26392 0.129014 0)
(1.25687 0.118524 -1.93656e-20)
(1.24981 0.108534 2.23292e-20)
(1.24285 0.0991871 2.67997e-21)
(1.2359 0.0904478 5.1666e-23)
(1.22894 0.0822828 -1.36417e-21)
(1.22218 0.0747115 0)
(1.21573 0.0675677 2.62551e-21)
(1.20966 0.0606762 -2.76716e-21)
(0.718615 0.473985 1.0698e-21)
(0.754023 0.509892 -1.05467e-21)
(0.792196 0.541306 0)
(0.834085 0.568582 2.51154e-22)
(0.879014 0.58866 2.95834e-21)
(0.926181 0.601924 -2.74911e-21)
(0.974336 0.608001 -6.01615e-22)
(1.02052 0.607029 -7.38747e-21)
(1.06609 0.599801 3.24389e-22)
(1.10876 0.586879 0)
(1.14628 0.569458 -5.28433e-21)
(1.17983 0.548148 4.12883e-20)
(1.2099 0.523326 -2.82429e-20)
(1.23433 0.497167 -8.65103e-21)
(1.25354 0.470564 0)
(1.2691 0.443232 2.68057e-20)
(1.28131 0.415571 -4.48071e-20)
(1.29 0.38888 -2.68238e-20)
(1.29558 0.363954 4.53896e-20)
(1.29892 0.340258 -9.71195e-21)
(1.30051 0.317499 8.94964e-21)
(1.30058 0.295738 -9.72998e-21)
(1.29936 0.27567 -3.7174e-20)
(1.29719 0.257354 3.73293e-20)
(1.29429 0.240123 -4.1818e-21)
(1.29076 0.223733 4.47899e-21)
(1.2867 0.20814 0)
(1.28223 0.193462 4.68774e-21)
(1.27754 0.179983 0)
(1.27267 0.167416 4.38157e-21)
(1.26755 0.155393 -1.7785e-20)
(1.26221 0.143884 1.79964e-20)
(1.25668 0.132856 1.75659e-20)
(1.25102 0.122409 -2.41855e-21)
(1.24534 0.112642 -1.97173e-20)
(1.23958 0.103403 9.63378e-21)
(1.23367 0.0945633 -8.62432e-21)
(1.22773 0.0861526 0)
(1.22185 0.0781318 1.03751e-21)
(1.2161 0.0704621 0)
(0.755412 0.430806 2.38786e-21)
(0.780334 0.458802 -7.41172e-22)
(0.807558 0.484562 -1.14053e-21)
(0.837817 0.508566 3.56877e-22)
(0.87103 0.528283 0)
(0.906948 0.543602 -7.81585e-22)
(0.944895 0.553707 0)
(0.982684 0.55796 -2.95843e-21)
(1.02125 0.557132 5.79724e-21)
(1.05874 0.551246 5.33654e-21)
(1.09311 0.540776 4.20802e-21)
(1.12512 0.526357 -4.79912e-21)
(1.1551 0.508379 1.98634e-20)
(1.18082 0.488252 -2.51079e-20)
(1.20226 0.466755 0)
(1.22074 0.443914 6.5075e-21)
(1.23638 0.420111 0)
(1.24872 0.396457 -6.14733e-21)
(1.2579 0.373741 -7.82013e-22)
(1.26472 0.351672 -2.74716e-20)
(1.26966 0.330098 -1.41025e-20)
(1.2729 0.309148 4.19064e-24)
(1.27454 0.289533 2.16529e-20)
(1.27489 0.271389 -2.84046e-20)
(1.27426 0.25417 3.61215e-20)
(1.27282 0.237685 3.18286e-20)
(1.27068 0.221916 -2.89196e-20)
(1.26794 0.207 -2.15692e-20)
(1.26477 0.193222 2.8768e-20)
(1.26126 0.18032 -3.19913e-20)
(1.2574 0.167948 2.87077e-20)
(1.25323 0.156077 3.47578e-21)
(1.24879 0.144681 0)
(1.24414 0.133857 -1.21828e-20)
(1.2394 0.123712 2.02497e-22)
(1.23454 0.114081 1.39959e-20)
(1.22951 0.104819 -6.86889e-21)
(1.22436 0.0959512 6.95096e-21)
(1.21913 0.0874716 -4.28859e-21)
(1.21389 0.0793789 3.65225e-21)
(0.788325 0.396041 -2.27794e-21)
(0.807568 0.4182 1.9656e-21)
(0.828043 0.439117 1.86417e-23)
(0.850524 0.459419 -8.61175e-22)
(0.875461 0.477173 2.08737e-23)
(0.902867 0.492319 6.30871e-22)
(0.932618 0.503952 6.251e-22)
(0.963129 0.511173 -3.69785e-21)
(0.995105 0.514568 4.74964e-21)
(1.0272 0.513737 -1.26085e-20)
(1.05764 0.508686 8.42792e-21)
(1.08688 0.499961 1.16822e-20)
(1.1151 0.487862 -1.76919e-20)
(1.14029 0.47316 3.97852e-21)
(1.16213 0.456514 7.19076e-21)
(1.18169 0.438122 1.73924e-20)
(1.19897 0.418312 -1.7693e-20)
(1.21336 0.397983 5.12399e-21)
(1.22479 0.377872 1.94145e-20)
(1.23397 0.357876 -2.0305e-20)
(1.24129 0.337953 5.58377e-21)
(1.2469 0.318276 2.16545e-20)
(1.25076 0.299536 -1.61411e-20)
(1.25313 0.281934 -5.30903e-21)
(1.25438 0.265047 -2.23419e-20)
(1.25469 0.248742 3.93537e-20)
(1.25415 0.233031 -2.28461e-20)
(1.25288 0.218072 -3.79499e-22)
(1.25101 0.204156 2.27576e-20)
(1.24866 0.191057 -4.57436e-20)
(1.24587 0.178459 2.58854e-20)
(1.24269 0.166346 -2.58879e-20)
(1.23916 0.154699 8.92625e-21)
(1.23536 0.143616 2.29184e-20)
(1.23138 0.1332 -1.14815e-20)
(1.22722 0.123288 -1.12745e-20)
(1.22286 0.113728 1.14146e-20)
(1.21832 0.104543 5.61665e-21)
(1.21363 0.0957432 -4.99856e-21)
(1.20884 0.0873467 0)
(0.813321 0.369407 6.23076e-22)
(0.828924 0.387427 -1.26178e-21)
(0.845297 0.404632 1.31097e-21)
(0.863024 0.421644 0)
(0.882602 0.437039 0)
(0.904181 0.450858 0)
(0.927897 0.462353 1.92396e-21)
(0.952678 0.470612 1.9886e-22)
(0.97913 0.476133 -1.32954e-21)
(1.00632 0.478332 2.06572e-21)
(1.03282 0.476902 0)
(1.05891 0.472274 3.30201e-21)
(1.08474 0.464671 4.86803e-21)
(1.1085 0.454367 0)
(1.12977 0.441862 -1.12048e-20)
(1.14938 0.427436 -1.26036e-20)
(1.16725 0.411351 1.28304e-20)
(1.18271 0.39429 -1.44138e-20)
(1.19552 0.376896 1.06169e-20)
(1.20628 0.359194 7.33558e-21)
(1.21532 0.341215 -8.66874e-21)
(1.22271 0.32315 -2.55644e-22)
(1.22833 0.305641 1.29201e-20)
(1.23236 0.28893 3.94319e-22)
(1.23519 0.272712 0)
(1.237 0.256901 0)
(1.23788 0.24154 -1.81963e-20)
(1.23791 0.226797 3.63686e-20)
(1.23721 0.212972 -1.40529e-20)
(1.23591 0.199877 0)
(1.23409 0.187234 -2.1033e-20)
(1.23181 0.175036 1.78574e-22)
(1.22912 0.163273 2.14076e-20)
(1.22607 0.152044 -9.36835e-21)
(1.22276 0.141455 1.17461e-20)
(1.21923 0.131351 9.31878e-21)
(1.21544 0.121586 -9.44019e-21)
(1.21142 0.112183 0)
(1.20721 0.10316 -2.92809e-21)
(1.20284 0.0945444 2.19574e-21)
(0.833941 0.347697 -9.78797e-22)
(0.847043 0.362652 1.25028e-21)
(0.860623 0.377006 0)
(0.875135 0.391333 0)
(0.891044 0.404549 3.12427e-22)
(0.908521 0.416766 -3.13463e-22)
(0.927804 0.427409 -6.47466e-22)
(0.948163 0.435676 -5.29992e-22)
(0.970126 0.442014 1.3362e-21)
(0.993085 0.445814 -4.33049e-22)
(1.01592 0.446627 0)
(1.03883 0.444786 -2.86383e-21)
(1.06197 0.440444 9.27888e-21)
(1.08381 0.433539 -9.94851e-21)
(1.10386 0.424421 7.17696e-22)
(1.12279 0.413388 0)
(1.14047 0.400622 0)
(1.15621 0.386606 4.9741e-21)
(1.16969 0.37187 1.77512e-20)
(1.18138 0.356518 -4.8411e-20)
(1.19155 0.340621 1.80356e-20)
(1.20021 0.324366 6.19436e-21)
(1.20716 0.308324 3.55145e-21)
(1.21251 0.292761 1.09039e-20)
(1.21666 0.277468 -1.40682e-20)
(1.21975 0.262405 7.545e-21)
(1.22186 0.247633 -3.50739e-21)
(1.22306 0.233332 -2.23624e-20)
(1.22342 0.219799 -7.54731e-21)
(1.22309 0.206891 0)
(1.22219 0.194367 0)
(1.22076 0.182232 -1.54765e-20)
(1.21884 0.170486 1.18959e-20)
(1.21651 0.159231 1.90043e-21)
(1.21385 0.148575 5.77077e-21)
(1.21091 0.138376 -7.85953e-21)
(1.20766 0.128498 9.54444e-22)
(1.20415 0.118967 0)
(1.20039 0.109803 4.79124e-22)
(1.19642 0.101039 2.66328e-22)
(0.850976 0.329653 -7.94099e-23)
(0.862263 0.342276 -4.65229e-24)
(0.873864 0.354419 1.31992e-21)
(0.88613 0.366589 6.38908e-22)
(0.899459 0.377941 4.33861e-22)
(0.914014 0.388615 1.17687e-22)
(0.93005 0.39818 5.79816e-23)
(0.947056 0.405962 4.64122e-22)
(0.965491 0.412372 -8.14371e-22)
(0.984962 0.416853 -1.20839e-21)
(1.00461 0.418921 4.44405e-21)
(1.02461 0.418836 -9.37858e-22)
(1.0451 0.416713 -6.45113e-21)
(1.06484 0.412289 1.1525e-20)
(1.08334 0.405786 -7.95671e-21)
(1.10115 0.397487 1.0878e-20)
(1.11811 0.387509 -2.29641e-21)
(1.13357 0.376162 -3.67815e-20)
(1.14717 0.36386 2.57426e-20)
(1.15926 0.350746 -4.95845e-21)
(1.17005 0.336905 0)
(1.17951 0.322508 1.05405e-20)
(1.18739 0.308042 -1.60812e-20)
(1.19374 0.293778 -1.64855e-20)
(1.19891 0.279584 2.26287e-20)
(1.20305 0.265452 -1.74173e-20)
(1.2062 0.251458 2.70299e-20)
(1.20841 0.237784 3.17739e-21)
(1.20971 0.224721 3.22131e-21)
(1.21027 0.212165 -3.03231e-21)
(1.21021 0.199915 0)
(1.20957 0.187986 -3.12902e-21)
(1.2084 0.176388 3.368e-21)
(1.20676 0.165225 8.17391e-21)
(1.20472 0.154608 -1.15836e-20)
(1.20234 0.144412 8.14096e-21)
(1.19963 0.134513 -7.48068e-21)
(1.1966 0.124937 0)
(1.19329 0.11571 -1.67152e-21)
(1.18972 0.106864 1.7625e-21)
(0.865336 0.314322 0)
(0.875242 0.325123 -1.77233e-21)
(0.885363 0.335522 -1.45889e-21)
(0.895976 0.345959 -6.53693e-22)
(0.907416 0.355757 -4.90729e-22)
(0.919825 0.365063 0)
(0.933442 0.37355 -3.58203e-23)
(0.947895 0.380662 -2.9991e-22)
(0.963579 0.386776 -1.35737e-22)
(0.980238 0.391408 -4.03902e-22)
(0.997217 0.394096 -7.4504e-22)
(1.01467 0.395052 6.23087e-21)
(1.03273 0.394367 2.9873e-21)
(1.05041 0.39168 2.14158e-21)
(1.06727 0.38712 -2.08605e-21)
(1.08373 0.38094 3.9405e-22)
(1.09967 0.373206 5.76283e-21)
(1.11449 0.364096 0)
(1.12779 0.353916 -1.44683e-20)
(1.13987 0.342821 1.07823e-20)
(1.15087 0.330894 0)
(1.16074 0.318284 2.50178e-20)
(1.16919 0.305393 -2.15542e-20)
(1.17623 0.292478 4.27633e-21)
(1.18215 0.279466 1.87108e-20)
(1.18709 0.266372 -1.44259e-20)
(1.19108 0.253278 0)
(1.19412 0.240362 0)
(1.19623 0.227902 -4.95735e-21)
(1.19757 0.215829 2.71296e-21)
(1.19826 0.20398 1.06381e-20)
(1.19834 0.192378 -8.02647e-21)
(1.19786 0.181042 0)
(1.19686 0.170078 1.7217e-22)
(1.19542 0.1596 -9.65377e-21)
(1.19359 0.149499 5.50482e-21)
(1.19139 0.139663 0)
(1.18884 0.130122 -2.79976e-21)
(1.18596 0.120904 1.78854e-21)
(1.18281 0.112042 -1.81102e-22)
(0.877584 0.301086 5.51881e-22)
(0.886404 0.310435 4.72256e-22)
(0.895377 0.319433 6.40743e-22)
(0.904728 0.328465 9.27224e-23)
(0.914735 0.336975 6.15801e-23)
(0.925522 0.345105 0)
(0.937296 0.352602 -1.91414e-22)
(0.949781 0.359007 -7.00764e-22)
(0.963312 0.364665 3.63363e-22)
(0.977717 0.369165 -3.37278e-22)
(0.992494 0.372088 -8.44854e-22)
(1.00778 0.373613 -4.75005e-21)
(1.02371 0.37382 -3.61709e-21)
(1.0395 0.372312 2.73406e-21)
(1.05474 0.369155 1.88299e-21)
(1.06981 0.364571 -6.21389e-21)
(1.08459 0.358588 1.89714e-21)
(1.09854 0.35129 -4.67109e-21)
(1.1113 0.342896 2.21288e-21)
(1.12307 0.333552 -1.44048e-20)
(1.13398 0.323335 1.22097e-20)
(1.14395 0.312366 -1.39217e-20)
(1.15267 0.300967 1.37685e-20)
(1.16011 0.289374 -1.86777e-20)
(1.16654 0.277554 1.8686e-20)
(1.17205 0.265535 -2.0099e-20)
(1.17666 0.253401 -2.48214e-22)
(1.18036 0.241319 2.06951e-20)
(1.18315 0.22955 -4.14608e-21)
(1.18514 0.218055 8.73205e-21)
(1.18648 0.206702 -4.32418e-21)
(1.1872 0.195523 0)
(1.18733 0.184544 0)
(1.18692 0.173869 2.42052e-21)
(1.18603 0.163615 -4.56158e-21)
(1.18472 0.153689 -1.19683e-21)
(1.183 0.143993 3.30463e-23)
(1.18091 0.134558 4.83115e-21)
(1.17847 0.125416 6.22508e-22)
(1.17571 0.116598 1.63084e-22)
(0.888147 0.289509 -1.70411e-22)
(0.896088 0.297677 6.51124e-22)
(0.904144 0.305534 -4.94603e-22)
(0.912498 0.313413 -4.34663e-22)
(0.921384 0.320851 -4.49645e-22)
(0.930907 0.32798 1.00765e-22)
(0.941246 0.334601 -1.49583e-22)
(0.952186 0.340333 -3.24123e-22)
(0.964012 0.345485 -1.05751e-22)
(0.976606 0.349713 1.95842e-21)
(0.989575 0.352648 -1.99364e-21)
(1.00304 0.354444 -3.09904e-21)
(1.01714 0.355176 -1.78828e-21)
(1.03124 0.354446 3.46363e-22)
(1.04499 0.352283 0)
(1.05871 0.348877 0)
(1.0723 0.344236 1.46196e-20)
(1.0853 0.338376 4.082e-22)
(1.09735 0.331447 -5.26129e-22)
(1.10864 0.323582 5.01901e-21)
(1.11924 0.314846 1.04432e-20)
(1.12906 0.305333 -1.34509e-20)
(1.13782 0.295297 -6.22646e-21)
(1.14544 0.284947 -3.89991e-22)
(1.15216 0.274275 -3.65726e-21)
(1.15804 0.263317 1.29853e-20)
(1.1631 0.252151 0)
(1.16729 0.240933 -2.86558e-22)
(1.17059 0.229902 0)
(1.17312 0.219043 -3.566e-21)
(1.17501 0.208251 3.9329e-21)
(1.17627 0.197562 -7.75596e-21)
(1.17694 0.187009 1.17102e-20)
(1.17705 0.176694 -9.92886e-21)
(1.17665 0.166733 1.21282e-20)
(1.17581 0.157049 -4.05868e-21)
(1.17456 0.147557 1.01916e-21)
(1.1729 0.138291 4.15178e-21)
(1.17086 0.129283 -1.03751e-21)
(1.16849 0.120564 9.60604e-22)
(0.897341 0.279272 -2.86253e-22)
(0.904554 0.286465 -2.84941e-22)
(0.911858 0.293378 -3.80591e-22)
(0.919404 0.300301 7.99358e-22)
(0.927389 0.306842 1.63687e-21)
(0.935902 0.313121 -6.39155e-22)
(0.945096 0.318978 0)
(0.954802 0.324094 -1.04682e-22)
(0.965258 0.328746 7.33038e-22)
(0.976382 0.332644 0)
(0.987863 0.335468 8.56506e-22)
(0.999809 0.337354 2.4495e-21)
(1.01235 0.33837 3.56919e-21)
(1.02497 0.338142 -1.41696e-21)
(1.03737 0.336672 -2.60687e-21)
(1.04984 0.334127 7.14007e-21)
(1.06228 0.330499 2.96714e-21)
(1.07431 0.325764 -1.26134e-20)
(1.0856 0.320018 -4.08849e-22)
(1.09629 0.313379 -3.66474e-21)
(1.10644 0.3059 8.59101e-21)
(1.11596 0.297651 -4.43936e-21)
(1.12459 0.288829 -5.02078e-21)
(1.13221 0.279611 1.01999e-20)
(1.13904 0.270011 -1.53904e-20)
(1.14513 0.260061 0)
(1.15046 0.249835 1.15783e-20)
(1.15499 0.239474 -1.48278e-20)
(1.15868 0.229195 0)
(1.16163 0.219 3.26454e-21)
(1.16395 0.208804 -6.47147e-21)
(1.16565 0.198648 6.58835e-21)
(1.16678 0.188568 -3.49991e-21)
(1.16734 0.178664 1.77618e-21)
(1.16739 0.169048 -1.11294e-22)
(1.16697 0.159658 -5.20156e-21)
(1.16613 0.150423 2.63476e-21)
(1.16487 0.141377 1.78348e-21)
(1.16321 0.132552 -2.70774e-21)
(1.1612 0.123981 1.17617e-21)
(0.905406 0.270138 -2.63605e-22)
(0.912005 0.276516 -6.53972e-22)
(0.918679 0.282639 1.1986e-21)
(0.925555 0.288759 -6.26749e-22)
(0.932799 0.294543 -4.62935e-22)
(0.940487 0.300097 4.82013e-22)
(0.94875 0.305292 -2.04777e-22)
(0.957449 0.309857 1.82782e-22)
(0.966788 0.31404 -3.08822e-22)
(0.976707 0.317595 -1.23188e-21)
(0.986954 0.320246 4.55281e-22)
(0.997625 0.322113 -1.0535e-21)
(1.00884 0.32326 2.88426e-21)
(1.02017 0.323343 4.97456e-22)
(1.03139 0.322351 -3.53602e-21)
(1.04272 0.32043 2.17807e-21)
(1.05409 0.317562 2.73886e-21)
(1.06517 0.313699 -2.22409e-21)
(1.07568 0.3089 -3.09754e-21)
(1.08572 0.303267 3.37648e-21)
(1.09535 0.29684 -3.30441e-21)
(1.10448 0.289671 -3.92505e-21)
(1.11284 0.281908 -8.13107e-21)
(1.12035 0.273704 1.22558e-20)
(1.12715 0.265079 4.64081e-21)
(1.13331 0.256065 -4.45986e-21)
(1.13878 0.246728 9.8119e-21)
(1.14352 0.237193 -9.94605e-21)
(1.14748 0.227653 0)
(1.15073 0.218123 -1.0783e-20)
(1.15338 0.208536 1.0972e-20)
(1.15545 0.198933 -5.69224e-21)
(1.15695 0.189355 8.60093e-21)
(1.15789 0.179893 8.7972e-21)
(1.15831 0.170659 -7.55086e-21)
(1.15827 0.161604 1.56805e-21)
(1.15779 0.152665 0)
(1.15689 0.143878 -3.09897e-21)
(1.15558 0.135276 2.76245e-21)
(1.15391 0.126892 -5.51807e-23)
(0.912529 0.261926 4.79202e-22)
(0.918602 0.267614 3.53006e-22)
(0.92474 0.273067 2.65863e-22)
(0.93105 0.278508 0)
(0.937672 0.283648 0)
(0.944672 0.288582 0)
(0.952163 0.293202 -1.77291e-23)
(0.960028 0.297279 -5.1748e-23)
(0.968442 0.301033 0)
(0.977359 0.304255 3.9022e-22)
(0.986574 0.306705 0)
(0.99617 0.308491 -1.81359e-21)
(1.00626 0.309673 2.91986e-21)
(1.01648 0.30994 -1.19133e-21)
(1.02665 0.309274 -1.56942e-21)
(1.03696 0.307801 0)
(1.04735 0.305502 -4.32858e-21)
(1.05755 0.302313 4.17994e-21)
(1.0673 0.298268 5.06235e-21)
(1.07668 0.293453 -5.12982e-21)
(1.08575 0.2879 5.833e-21)
(1.09442 0.281645 2.98915e-21)
(1.10245 0.274798 -6.85862e-21)
(1.10974 0.267486 6.62077e-21)
(1.11643 0.259735 -1.12274e-20)
(1.12254 0.251575 7.75749e-23)
(1.12804 0.243061 1.2104e-20)
(1.13289 0.234303 8.68614e-21)
(1.13701 0.225473 -2.21167e-20)
(1.14047 0.216593 1.83853e-20)
(1.14337 0.207609 2.41785e-21)
(1.14571 0.198565 -7.35995e-21)
(1.1475 0.189497 -2.60128e-21)
(1.14876 0.180496 -2.65696e-21)
(1.14949 0.171667 0)
(1.14977 0.162971 1.2799e-21)
(1.14961 0.154357 1.2983e-21)
(1.14903 0.14586 0)
(1.14804 0.137513 6.85352e-22)
(1.14667 0.129348 -4.54152e-23)
(0.918857 0.254495 2.99666e-22)
(0.924474 0.259592 8.17277e-22)
(0.930148 0.264473 -5.84021e-22)
(0.935972 0.269333 -4.26929e-22)
(0.942064 0.27392 0)
(0.948482 0.27832 0)
(0.955321 0.282442 0)
(0.962484 0.286088 0)
(0.970121 0.289454 -5.2859e-22)
(0.978195 0.292363 -1.57775e-22)
(0.986537 0.294605 0)
(0.995219 0.296278 -1.52026e-21)
(1.00434 0.297436 1.53563e-21)
(1.01361 0.297803 3.38972e-21)
(1.02286 0.297355 -4.95138e-21)
(1.03225 0.296204 2.69151e-21)
(1.04176 0.29433 -1.73105e-21)
(1.05114 0.291662 1.7644e-21)
(1.06017 0.288216 -4.26819e-21)
(1.06892 0.284067 2.17317e-21)
(1.07742 0.279235 -2.58031e-21)
(1.08561 0.273748 -2.78082e-21)
(1.09326 0.267686 0)
(1.10027 0.261154 -6.06582e-21)
(1.10676 0.254179 3.34514e-21)
(1.11276 0.246786 3.5238e-21)
(1.11821 0.239023 -2.86974e-22)
(1.12308 0.230986 3.55411e-21)
(1.12728 0.222825 7.69661e-21)
(1.13087 0.214567 -3.8302e-21)
(1.13394 0.206169 -2.13172e-21)
(1.13648 0.197673 -1.49564e-22)
(1.13849 0.189115 8.74611e-21)
(1.13999 0.18058 -8.89432e-21)
(1.14099 0.172167 0)
(1.14153 0.163846 -2.30766e-21)
(1.14165 0.155575 -1.20754e-21)
(1.14134 0.147388 0)
(1.14063 0.139319 -3.09174e-22)
(1.13954 0.131399 0)
(0.924507 0.24773 -1.19741e-22)
(0.929724 0.25232 -8.67493e-22)
(0.934993 0.256707 -1.71342e-22)
(0.940393 0.261066 8.36798e-22)
(0.946027 0.265176 0)
(0.951944 0.269113 -4.35544e-22)
(0.958226 0.272801 2.61542e-22)
(0.964789 0.276067 1.97871e-22)
(0.971764 0.279086 -1.98983e-22)
(0.979122 0.281706 3.09168e-22)
(0.986718 0.283744 0)
(0.994617 0.285288 0)
(1.00291 0.286389 0)
(1.01134 0.286799 -1.70633e-21)
(1.01978 0.286494 2.25185e-21)
(1.02838 0.285574 -2.28293e-21)
(1.03709 0.284017 0)
(1.04572 0.281753 -4.65526e-21)
(1.05407 0.278785 -7.26327e-21)
(1.06221 0.275175 1.73065e-20)
(1.07016 0.270941 -8.06299e-21)
(1.07786 0.266098 0)
(1.08511 0.260705 0)
(1.09181 0.25485 2.70843e-21)
(1.09807 0.248558 8.23646e-21)
(1.10389 0.241849 -5.68504e-21)
(1.10924 0.234766 7.55759e-23)
(1.11406 0.227389 -1.29732e-20)
(1.11827 0.219851 9.81236e-21)
(1.12192 0.212179 9.18642e-23)
(1.12508 0.204341 0)
(1.12776 0.196374 -1.91097e-21)
(1.12994 0.188315 1.83625e-21)
(1.13163 0.180241 2.02472e-21)
(1.13283 0.172246 2.39068e-23)
(1.13359 0.164307 -2.98244e-21)
(1.13394 0.156389 2.05112e-21)
(1.13387 0.148526 -4.15798e-21)
(1.13339 0.14075 2.61969e-21)
(1.13254 0.133092 0)
(0.929577 0.241543 -3.57492e-23)
(0.934438 0.24569 -2.72506e-22)
(0.939349 0.249649 0)
(0.944376 0.253574 3.21707e-22)
(0.949609 0.257269 0)
(0.955089 0.260803 6.97599e-22)
(0.960888 0.26411 -1.96136e-22)
(0.966933 0.267041 7.37243e-23)
(0.973339 0.269751 -4.40872e-22)
(0.980079 0.272107 0)
(0.987032 0.273951 -7.14655e-22)
(0.994255 0.275362 -1.11105e-21)
(1.00183 0.276386 1.30225e-21)
(1.00954 0.276802 2.05502e-21)
(1.01727 0.276588 -3.34428e-21)
(1.02514 0.275833 0)
(1.03315 0.274514 0)
(1.0411 0.272565 2.42648e-22)
(1.04883 0.269978 6.23154e-21)
(1.05639 0.266808 -6.30553e-21)
(1.06381 0.263067 -3.97991e-21)
(1.07103 0.258765 -4.22806e-21)
(1.07788 0.253943 4.10509e-21)
(1.08425 0.248674 0)
(1.09024 0.242979 7.20263e-21)
(1.09584 0.236878 -2.00392e-20)
(1.10104 0.230405 1.31132e-20)
(1.10576 0.223629 -1.11448e-20)
(1.10993 0.216664 5.69228e-21)
(1.11359 0.209539 -2.18498e-22)
(1.1168 0.202229 6.26851e-21)
(1.11956 0.194768 -1.28589e-20)
(1.12185 0.187189 4.87043e-21)
(1.12368 0.179566 -6.74513e-21)
(1.12504 0.171983 5.25773e-21)
(1.12598 0.164426 -3.55418e-21)
(1.12651 0.156865 3.60023e-21)
(1.12664 0.149331 2.72083e-21)
(1.12637 0.141858 -2.78725e-21)
(1.12573 0.134475 0)
(0.934142 0.235859 0)
(0.938687 0.239619 0)
(0.943277 0.243203 -2.21394e-23)
(0.947974 0.246748 -3.82066e-22)
(0.952851 0.250081 3.08e-22)
(0.957946 0.253262 -1.10098e-21)
(0.963323 0.256235 9.09291e-23)
(0.968916 0.258869 6.56504e-23)
(0.974824 0.261303 8.33649e-22)
(0.981028 0.26342 -7.74138e-22)
(0.987421 0.265084 8.01686e-22)
(0.994054 0.266363 7.16251e-23)
(1.001 0.2673 -1.2573e-21)
(1.00807 0.2677 9.42255e-22)
(1.01517 0.267541 4.73797e-21)
(1.02241 0.266902 -3.38266e-21)
(1.02978 0.265763 -2.37399e-21)
(1.03712 0.264059 9.0745e-21)
(1.04428 0.261778 7.86856e-21)
(1.05131 0.258968 -1.1346e-20)
(1.05823 0.255637 9.16103e-21)
(1.06499 0.25179 -6.22073e-21)
(1.07143 0.247454 3.78685e-21)
(1.07746 0.242691 -3.72777e-21)
(1.08317 0.23752 3.96414e-21)
(1.08854 0.231956 0)
(1.09355 0.226028 0)
(1.09814 0.219795 2.50508e-21)
(1.10223 0.213355 0)
(1.10586 0.206738 -2.71857e-21)
(1.10907 0.199921 0)
(1.11186 0.192937 8.4125e-21)
(1.11423 0.185818 -2.95996e-21)
(1.11615 0.178628 1.55382e-21)
(1.11762 0.171448 1.58988e-21)
(1.11869 0.164268 0)
(1.11938 0.15706 0)
(1.11967 0.149858 -8.35495e-22)
(1.11957 0.142693 1.24384e-21)
(1.11912 0.135591 -8.29567e-22)
(0.93827 0.230617 2.2038e-22)
(0.942528 0.234036 0)
(0.946831 0.237291 4.71119e-23)
(0.95123 0.240502 2.87557e-22)
(0.95579 0.243516 -8.66523e-22)
(0.960544 0.246386 9.50022e-22)
(0.965546 0.249065 -1.52633e-22)
(0.97074 0.251436 0)
(0.976212 0.253623 -2.26138e-22)
(0.981945 0.255525 4.07004e-22)
(0.987846 0.257022 5.9391e-22)
(0.993962 0.258174 -5.77115e-23)
(1.00035 0.259022 -1.17613e-21)
(1.00686 0.259392 2.11936e-21)
(1.01341 0.259263 1.41973e-21)
(1.02009 0.258706 0)
(1.02688 0.257702 -1.87203e-21)
(1.03366 0.25619 -4.40812e-21)
(1.0403 0.254157 -2.74301e-21)
(1.04683 0.251643 7.49487e-21)
(1.05328 0.248653 -5.20258e-21)
(1.05961 0.245189 3.05269e-21)
(1.06566 0.24127 0)
(1.07136 0.236945 3.51745e-21)
(1.07678 0.232232 -3.73951e-21)
(1.0819 0.227143 0)
(1.08671 0.221701 3.87789e-21)
(1.09114 0.215957 8.56507e-21)
(1.09513 0.209997 -1.33806e-20)
(1.09868 0.203846 9.07048e-21)
(1.10186 0.197488 4.82829e-21)
(1.10466 0.190952 -7.48325e-21)
(1.10705 0.184267 -2.65714e-21)
(1.10903 0.177492 -2.56402e-21)
(1.11058 0.170701 0)
(1.11176 0.163887 0)
(1.11255 0.157028 0)
(1.11298 0.150155 6.95282e-22)
(1.11303 0.143297 -7.27105e-22)
(1.11273 0.13648 7.08967e-22)
(0.942012 0.225766 -3.51493e-22)
(0.946012 0.228884 3.27105e-22)
(0.950055 0.231847 -2.72155e-22)
(0.954185 0.234763 -1.92851e-22)
(0.958459 0.237495 5.3882e-22)
(0.962907 0.240091 -4.13534e-22)
(0.967575 0.242509 1.15743e-23)
(0.972414 0.244647 6.04215e-23)
(0.977499 0.246614 4.67352e-22)
(0.982815 0.248322 -1.12902e-21)
(0.988281 0.249665 -3.07547e-22)
(0.993939 0.250698 -3.65698e-22)
(0.999841 0.251457 1.44278e-21)
(1.00585 0.251788 -2.20362e-21)
(1.0119 0.251672 1.06667e-21)
(1.01807 0.251172 2.9359e-21)
(1.02435 0.250271 -2.96321e-21)
(1.03063 0.248912 1.87043e-21)
(1.03679 0.247081 3.48389e-22)
(1.04287 0.244811 -1.89492e-21)
(1.04888 0.242107 0)
(1.0548 0.238968 0)
(1.06048 0.235406 0)
(1.06585 0.23146 6.06547e-21)
(1.07098 0.227148 -6.14333e-21)
(1.07585 0.222479 0)
(1.08045 0.217471 -3.66643e-21)
(1.0847 0.212167 7.5336e-21)
(1.08856 0.206642 -1.1685e-20)
(1.09202 0.20092 0)
(1.09515 0.194987 4.25965e-21)
(1.09791 0.188869 -2.21313e-21)
(1.1003 0.182592 -4.56615e-21)
(1.1023 0.176211 7.0681e-21)
(1.10391 0.169792 -2.50113e-21)
(1.10516 0.163333 6.06894e-21)
(1.10604 0.156813 0)
(1.10657 0.150263 -3.9709e-23)
(1.10674 0.143709 3.13619e-22)
(1.10657 0.137178 -1.83755e-23)
(0.945416 0.221265 1.86117e-22)
(0.94918 0.224114 -2.38813e-23)
(0.952985 0.226818 2.60596e-22)
(0.956871 0.229471 3.78049e-22)
(0.960887 0.231953 0)
(0.965059 0.234306 3.05989e-22)
(0.969427 0.236492 -5.40986e-23)
(0.973946 0.238422 -5.65232e-23)
(0.978685 0.240192 -3.63611e-22)
(0.98363 0.241726 7.65023e-22)
(0.988709 0.242929 -7.71087e-22)
(0.993958 0.243851 -1.36893e-21)
(0.999425 0.244524 1.48315e-21)
(1.00499 0.244812 -3.60231e-21)
(1.0106 0.244698 7.987e-22)
(1.01631 0.244237 2.2839e-21)
(1.02213 0.243414 -1.33721e-21)
(1.02795 0.242177 -1.50524e-21)
(1.03368 0.240511 3.61333e-21)
(1.03934 0.238445 -1.81367e-21)
(1.04495 0.235982 2.00801e-21)
(1.05047 0.23312 0)
(1.0558 0.229865 0)
(1.06086 0.22625 0)
(1.06571 0.22229 5.67574e-21)
(1.07033 0.217991 -2.58857e-21)
(1.0747 0.21337 -6.09436e-21)
(1.07878 0.208462 -3.16306e-21)
(1.08248 0.203332 -6.96173e-21)
(1.08584 0.198003 1.05181e-20)
(1.08888 0.192462 7.53992e-21)
(1.09159 0.186732 -1.17114e-20)
(1.09396 0.180838 5.92316e-21)
(1.09597 0.174829 0)
(1.0976 0.168766 2.08475e-21)
(1.09889 0.162646 -7.65003e-21)
(1.09984 0.156455 1.13557e-21)
(1.10045 0.150219 -1.13369e-21)
(1.10071 0.143965 -1.15144e-21)
(1.10065 0.137715 6.43664e-22)
(0.94852 0.217075 -3.05875e-22)
(0.952068 0.219685 -2.08163e-23)
(0.955656 0.222157 4.24819e-22)
(0.959318 0.224577 -6.59683e-22)
(0.963098 0.226836 2.99186e-22)
(0.967019 0.228972 0)
(0.971115 0.230951 0)
(0.975347 0.232694 0)
(0.979775 0.234289 1.70385e-22)
(0.984386 0.235665 -4.11678e-22)
(0.989117 0.236741 1.6304e-21)
(0.994 0.237561 -8.19058e-22)
(0.999078 0.238153 -1.96434e-21)
(1.00425 0.238397 1.4724e-21)
(1.00945 0.238276 2.00834e-21)
(1.01476 0.237841 -2.02726e-21)
(1.02016 0.237078 1.2744e-21)
(1.02556 0.23594 1.43389e-21)
(1.03089 0.234411 2.96033e-21)
(1.03617 0.232516 1.75003e-21)
(1.0414 0.230258 -5.45075e-21)
(1.04657 0.227633 4.11547e-21)
(1.05156 0.224643 -2.0914e-21)
(1.05632 0.221316 -4.72367e-21)
(1.06089 0.217666 1.21733e-20)
(1.06527 0.213696 -2.38626e-21)
(1.06942 0.209421 2.66264e-21)
(1.07331 0.204869 3.00468e-21)
(1.07686 0.200098 6.17123e-21)
(1.0801 0.195127 -4.24062e-23)
(1.08304 0.189948 -3.32792e-21)
(1.08569 0.184579 -1.78197e-21)
(1.08801 0.179042 -1.84656e-21)
(1.09 0.173383 0)
(1.09164 0.167657 -3.82535e-21)
(1.09295 0.161862 -3.83491e-23)
(1.09395 0.155987 2.98148e-21)
(1.09461 0.150055 4.55506e-21)
(1.09494 0.144093 -2.56074e-21)
(1.09497 0.138121 9.82391e-22)
(0.951356 0.213167 6.96358e-22)
(0.954706 0.215562 -3.75638e-22)
(0.958094 0.217826 -5.82791e-22)
(0.961551 0.220037 1.7373e-22)
(0.965115 0.222096 0)
(0.968806 0.224038 0)
(0.972655 0.225833 0)
(0.976625 0.227409 -5.74623e-23)
(0.980772 0.228845 -4.12818e-22)
(0.985081 0.23008 1.49273e-22)
(0.989499 0.231041 0)
(0.994052 0.231766 1.56174e-21)
(0.99878 0.232282 -9.20308e-22)
(1.00359 0.232482 -1.31813e-21)
(1.00843 0.232351 1.79211e-21)
(1.01337 0.231933 -5.72107e-21)
(1.01839 0.231217 2.06284e-21)
(1.02342 0.230159 -2.37495e-21)
(1.02838 0.228744 -2.82475e-21)
(1.0333 0.226994 -3.10669e-21)
(1.03819 0.224911 3.14271e-21)
(1.04302 0.22249 0)
(1.0477 0.219731 -1.98169e-21)
(1.05218 0.216658 -4.19287e-21)
(1.05649 0.213281 1.98518e-21)
(1.06062 0.209604 0)
(1.06456 0.205637 -2.53498e-21)
(1.06825 0.201407 -2.49083e-21)
(1.07165 0.196961 0)
(1.07476 0.192319 -2.92322e-21)
(1.0776 0.187471 -9.00613e-21)
(1.08016 0.182436 9.27791e-21)
(1.08242 0.177233 -6.41744e-21)
(1.08438 0.171902 1.66654e-21)
(1.08601 0.166495 0)
(1.08733 0.16101 -3.48303e-21)
(1.08834 0.155437 3.52263e-21)
(1.08905 0.149799 0)
(1.08944 0.144119 -2.36762e-22)
(1.08953 0.138418 0)
(0.953954 0.209514 -5.72496e-22)
(0.95712 0.211715 -1.92179e-22)
(0.960323 0.213792 1.92319e-22)
(0.963591 0.215815 0)
(0.966957 0.217695 0)
(0.970437 0.219463 -7.11822e-23)
(0.974059 0.221092 9.78719e-23)
(0.977791 0.222518 2.89782e-23)
(0.981681 0.223812 2.82226e-22)
(0.985717 0.22492 5.69829e-22)
(0.98985 0.225775 -5.73383e-22)
(0.994105 0.226414 0)
(0.998514 0.226861 -6.93852e-23)
(1.003 0.227018 2.43599e-21)
(1.00751 0.226873 1.60581e-21)
(1.01211 0.226466 1.67117e-22)