/*--------------------------------*- C++ -*----------------------------------*\
| =========                 |                                                 |
| \\      /  F ield         | OpenFOAM: The Open Source CFD Toolbox           |
|  \\    /   O peration     | Version:  3.0.1                                 |
|   \\  /    A nd           | Web:      www.OpenFOAM.org                      |
|    \\/     M anipulation  |                                                 |
\*---------------------------------------------------------------------------*/
FoamFile
{
    version     2.0;
    format      ascii;
    class       volScalarField;
    location    "500";
    object      nuTilda;
}
// * * * * * * * * * * * * * * * * * * * * * * * * * * * * * * * * * * * * * //

dimensions      [0 2 -1 0 0 0 0];

internalField   nonuniform List<scalar> 
58000
(
0.000792351
0.000742052
0.000666778
0.000596637
0.000541313
0.000498281
0.000468793
0.000445022
0.000428822
0.000418769
0.000411449
0.000407064
0.000405816
0.000404343
0.000402839
0.000402115
0.000402288
0.000403034
0.000404121
0.000405598
0.000407512
0.000409644
0.000411985
0.000414314
0.000416842
0.00041924
0.00042166
0.000424061
0.000426297
0.000428504
0.000430438
0.000432183
0.000433673
0.000434839
0.000435758
0.000435857
0.000434973
0.000433738
0.000432546
0.000433112
0.00292278
0.0026035
0.00224833
0.00192663
0.00166827
0.00146349
0.00130702
0.00118222
0.0010862
0.00101473
0.000958324
0.00091556
0.000883779
0.000858078
0.000834708
0.000816418
0.000802809
0.000790988
0.00077985
0.000770738
0.000764168
0.000758534
0.00075334
0.000748303
0.000745005
0.000742046
0.000739141
0.000736248
0.000733234
0.00073099
0.000728999
0.000725634
0.000720988
0.000715379
0.000709251
0.000701989
0.000694684
0.000688461
0.000683754
0.000682939
0.00514408
0.00476103
0.00431126
0.00383933
0.00340757
0.0030327
0.00273385
0.00248805
0.00229005
0.00213642
0.00201223
0.00191054
0.00183437
0.00177396
0.00172248
0.00168275
0.00165308
0.00162851
0.00160677
0.00158953
0.00157703
0.00156633
0.00155628
0.00154629
0.00153891
0.00153114
0.0015222
0.00151227
0.00150134
0.00149186
0.0014823
0.00147223
0.00146163
0.00145018
0.00143773
0.0014228
0.00140584
0.00138857
0.00137262
0.0013643
0.00735772
0.0069342
0.00641773
0.00587243
0.00534736
0.0048558
0.00443825
0.00407926
0.00378021
0.00354201
0.00334188
0.00317511
0.00304618
0.00294115
0.00285033
0.0027783
0.00272255
0.00267582
0.0026347
0.00260136
0.00257579
0.00255356
0.00253137
0.00250872
0.00249062
0.00247408
0.00245731
0.00244003
0.0024217
0.00240489
0.0023876
0.00236899
0.00234915
0.00232816
0.00230691
0.00228286
0.00225626
0.00222898
0.00220317
0.0021856
0.00954773
0.00910315
0.00855252
0.00796226
0.0073743
0.00681231
0.00631265
0.00586361
0.00547407
0.00515331
0.00487686
0.00464116
0.00445438
0.00429945
0.00416387
0.00405423
0.00396746
0.00389351
0.0038274
0.00377214
0.00372712
0.00368702
0.00364931
0.00361269
0.0035834
0.00355579
0.00352748
0.00349835
0.00346817
0.00344177
0.00341484
0.00338604
0.00335544
0.00332317
0.003291
0.00325584
0.00321763
0.00317842
0.00314085
0.00311174
0.0117102
0.0112531
0.0106843
0.0100654
0.00944221
0.00883124
0.00827413
0.00776165
0.0073014
0.00691048
0.0065654
0.00626414
0.00601941
0.00581284
0.00562979
0.00547848
0.005356
0.00525048
0.00515435
0.00507201
0.00500471
0.00494496
0.0048897
0.00483538
0.00478919
0.00474697
0.00470524
0.00466353
0.00462023
0.00458034
0.00454117
0.004501
0.00445843
0.00441358
0.00436882
0.00432089
0.0042695
0.0042168
0.00416584
0.00412322
0.0138485
0.0133837
0.0128058
0.0121714
0.0115272
0.010884
0.0102874
0.0097249
0.00921129
0.00876507
0.00836276
0.00800235
0.00770302
0.0074462
0.00721664
0.00702239
0.0068616
0.00672028
0.00659192
0.00648145
0.00639058
0.00630824
0.00623035
0.0061559
0.00609292
0.00603462
0.00597694
0.00591912
0.00586116
0.00580717
0.00575417
0.00570041
0.00564386
0.00558466
0.00552561
0.00546338
0.00539739
0.00532985
0.00526408
0.00520635
0.015966
0.0154963
0.014914
0.0142718
0.0136157
0.0129526
0.0123277
0.0117313
0.0111769
0.0106833
0.0102315
0.00982246
0.00947541
0.00917198
0.00889552
0.00865905
0.00846102
0.00828522
0.00812437
0.00798464
0.00786603
0.00775921
0.00765855
0.00756296
0.00747939
0.00740279
0.00732842
0.00725371
0.00717832
0.00710899
0.00704087
0.00697172
0.00689962
0.00682473
0.00675005
0.00667226
0.0065905
0.00650698
0.00642517
0.00635102
0.0180664
0.0175932
0.0170091
0.0163633
0.0157005
0.0150263
0.0143829
0.0137627
0.0131757
0.0126479
0.0121571
0.0117046
0.0113146
0.0109691
0.0106507
0.0103747
0.0101414
0.00993144
0.00973742
0.00956622
0.0094198
0.00928834
0.00916362
0.00904416
0.00893985
0.00884353
0.00874929
0.00865665
0.00856321
0.00847672
0.00839169
0.00830474
0.00821622
0.0081248
0.00803352
0.00793915
0.00784059
0.00774007
0.00764116
0.00754946
0.0201524
0.0196769
0.0190925
0.0184455
0.0177778
0.0170989
0.0164444
0.0158082
0.0151982
0.0146428
0.014119
0.0136327
0.013207
0.0128244
0.0124681
0.0121546
0.0118848
0.0116413
0.0114155
0.0112153
0.0110411
0.0108826
0.0107338
0.0105905
0.0104629
0.0103462
0.0102319
0.0101195
0.0100066
0.00990141
0.00979842
0.00969354
0.00958732
0.00947833
0.00936939
0.00925739
0.00914107
0.00902264
0.0089057
0.00879553
0.0222267
0.0217495
0.0211661
0.02052
0.0198513
0.0191694
0.0185075
0.0178601
0.0172339
0.0166562
0.0161083
0.0155937
0.0151374
0.0147213
0.0143309
0.0139838
0.0136815
0.0134074
0.0131507
0.0129198
0.0127178
0.0125337
0.0123588
0.0121919
0.0120415
0.0119021
0.0117672
0.0116332
0.0115002
0.0113748
0.0112538
0.0111306
0.0110062
0.0108797
0.0107519
0.0106212
0.0104863
0.0103493
0.0102136
0.0100842
0.0242911
0.0238126
0.0232308
0.022587
0.0219192
0.0212366
0.0205699
0.0199133
0.019277
0.0186837
0.0181162
0.0175768
0.017094
0.0166517
0.0162326
0.0158556
0.0155231
0.0152177
0.0149313
0.0146729
0.0144438
0.0142327
0.0140326
0.0138403
0.0136671
0.0135055
0.0133492
0.0131937
0.0130386
0.0128936
0.0127534
0.0126106
0.0124672
0.0123218
0.012175
0.0120254
0.0118716
0.0117154
0.0115605
0.0114113
0.0263473
0.0258678
0.0252879
0.0246471
0.0239815
0.0232998
0.0226312
0.0219693
0.0213251
0.0207198
0.0201373
0.0195788
0.0190741
0.0186081
0.0181631
0.0177591
0.0173994
0.0170666
0.016752
0.0164649
0.0162102
0.0159736
0.0157475
0.015531
0.0153331
0.0151483
0.0149708
0.0147943
0.0146178
0.0144525
0.0142925
0.0141297
0.0139664
0.0138013
0.013635
0.0134663
0.0132931
0.0131175
0.0129428
0.0127735
0.0283968
0.0279162
0.0273384
0.0267008
0.0260383
0.0253587
0.0246897
0.0240252
0.0233754
0.0227608
0.0221661
0.0215928
0.02107
0.0205829
0.0201138
0.0196853
0.0193008
0.018944
0.0186041
0.0182909
0.0180094
0.0177486
0.0174984
0.0172579
0.0170362
0.0168279
0.016627
0.0164297
0.0162322
0.0160463
0.0158661
0.0156831
0.0154989
0.0153144
0.0151287
0.0149406
0.0147479
0.0145525
0.0143577
0.0141677
0.0304411
0.0299587
0.0293828
0.0287488
0.0280898
0.0274131
0.0267451
0.0260795
0.0254262
0.0248044
0.0241986
0.0236143
0.0230768
0.022571
0.0220837
0.0216343
0.0212271
0.020845
0.0204803
0.0201435
0.0198373
0.0195514
0.0192782
0.0190142
0.0187693
0.0185385
0.0183144
0.0180962
0.0178778
0.0176702
0.0174703
0.0172676
0.0170634
0.016859
0.0166535
0.0164456
0.0162331
0.0160176
0.0158025
0.0155917
0.0324771
0.0319946
0.0314214
0.0307915
0.0301365
0.0294633
0.0287971
0.0281318
0.0274765
0.0268498
0.0262364
0.0256423
0.0250921
0.0245717
0.0240682
0.0236006
0.0231731
0.0227688
0.0223801
0.0220182
0.0216876
0.0213794
0.0210831
0.0207936
0.0205267
0.020276
0.0200306
0.0197901
0.0195519
0.0193235
0.0191024
0.0188804
0.0186566
0.0184323
0.0182069
0.017979
0.0177464
0.0175106
0.0172749
0.0170429
0.0345072
0.0340248
0.0334547
0.0328292
0.0321786
0.0315094
0.0308457
0.0301815
0.0295256
0.0288956
0.0282766
0.0276744
0.0271122
0.0265805
0.0260635
0.0255799
0.0251343
0.0247097
0.0242976
0.023914
0.0235608
0.0232285
0.0229095
0.022599
0.0223105
0.0220394
0.021773
0.0215112
0.0212526
0.0210038
0.020762
0.0205201
0.0202762
0.0200319
0.0197863
0.0195383
0.0192854
0.0190292
0.0187727
0.0185194
0.0365321
0.03605
0.0354832
0.0348624
0.0342166
0.0335517
0.0328909
0.0322286
0.0315729
0.0309409
0.030318
0.0297098
0.0291387
0.0285964
0.0280671
0.0275692
0.0271071
0.0266643
0.0262317
0.0258259
0.0254529
0.0250991
0.0247591
0.0244271
0.0241173
0.0238257
0.0235385
0.0232558
0.0229771
0.022708
0.0224458
0.0221839
0.0219199
0.0216553
0.0213895
0.0211212
0.020848
0.0205713
0.0202939
0.0200192
0.0385521
0.0380705
0.0375071
0.0368914
0.0362508
0.0355902
0.0349327
0.0342728
0.0336182
0.0329851
0.0323595
0.0317468
0.0311685
0.0306172
0.0300771
0.0295661
0.0290888
0.0286296
0.0281789
0.0277535
0.0273615
0.0269865
0.0266243
0.0262732
0.0259432
0.0256313
0.0253239
0.025021
0.0247225
0.0244333
0.024151
0.0238692
0.0235852
0.0233003
0.0230142
0.0227258
0.0224323
0.022135
0.0218368
0.0215407
0.0405671
0.0400861
0.0395263
0.0389161
0.0382821
0.0376252
0.0369711
0.0363139
0.035661
0.0350278
0.0344005
0.0337845
0.0332004
0.0326413
0.0320918
0.031569
0.0310765
0.0306031
0.0301362
0.0296927
0.0292805
0.0288875
0.028506
0.0281357
0.0277857
0.0274528
0.0271266
0.0268042
0.0264863
0.0261774
0.0258752
0.0255738
0.0252698
0.0249646
0.0246585
0.02435
0.0240365
0.0237188
0.0233998
0.0230824
0.042577
0.0420969
0.0415407
0.0409356
0.0403071
0.0396555
0.0390055
0.0383516
0.037701
0.0370684
0.0364406
0.0358222
0.0352334
0.0346675
0.0341099
0.0335771
0.0330723
0.0325837
0.0321024
0.0316424
0.0312124
0.0308013
0.030401
0.0300121
0.0296429
0.0292904
0.0289452
0.0286034
0.0282661
0.0279379
0.0276164
0.0272957
0.0269719
0.0266458
0.0263204
0.0259925
0.0256591
0.0253211
0.0249815
0.0246428
0.0445817
0.0441028
0.0435504
0.0429504
0.0423272
0.0416811
0.0410357
0.0403857
0.0397379
0.0391068
0.0384794
0.0378594
0.037267
0.036695
0.03613
0.0355885
0.0350747
0.0345736
0.0340765
0.0336004
0.0331545
0.0327254
0.0323068
0.0318997
0.0315122
0.0311412
0.0307776
0.0304167
0.0300591
0.0297129
0.0293728
0.0290333
0.0286902
0.0283446
0.0279997
0.0276522
0.0272988
0.0269407
0.0265804
0.0262206
0.046581
0.0461035
0.0455553
0.0449607
0.0443427
0.043702
0.0430617
0.0424163
0.0417714
0.0411422
0.0405169
0.0398953
0.039301
0.0387227
0.0381508
0.037601
0.0370775
0.0365651
0.0360547
0.0355636
0.0351006
0.0346563
0.0342209
0.0337954
0.0333915
0.0330031
0.0326218
0.0322427
0.0318664
0.0315018
0.0311433
0.0307852
0.0304234
0.0300589
0.0296947
0.0293275
0.0289544
0.0285761
0.0281954
0.0278146
0.0485742
0.0480985
0.0475548
0.046967
0.0463532
0.045718
0.045083
0.0444435
0.0438008
0.0431732
0.0425492
0.0419274
0.041331
0.0407485
0.040171
0.0396138
0.039081
0.0385579
0.0380357
0.0375311
0.0370533
0.0365938
0.0361426
0.0357004
0.03528
0.0348747
0.0344762
0.0340795
0.0336853
0.0333027
0.0329261
0.0325498
0.0321698
0.0317878
0.0314039
0.031017
0.0306241
0.030226
0.029825
0.0294234
0.0505608
0.0500872
0.0495481
0.0489656
0.0483574
0.0477281
0.0470985
0.0464639
0.0458251
0.0451998
0.0445772
0.0439558
0.043358
0.0427724
0.0421901
0.0416261
0.0410846
0.0405514
0.0400182
0.0395014
0.0390099
0.0385362
0.03807
0.0376123
0.0371761
0.0367543
0.0363393
0.0359255
0.035514
0.035114
0.0347196
0.0343255
0.0339275
0.0335273
0.0331247
0.0327188
0.0323067
0.031889
0.0314681
0.031046
0.0525401
0.052069
0.0515357
0.0509575
0.050355
0.0497322
0.0491084
0.0484786
0.047844
0.0472216
0.0466009
0.0459806
0.0453821
0.0447944
0.0442078
0.0436374
0.0430875
0.0425445
0.0420011
0.041473
0.0409689
0.0404819
0.0400017
0.0395293
0.0390779
0.0386404
0.0382093
0.0377792
0.0373509
0.0369341
0.0365225
0.0361109
0.0356953
0.0352772
0.0348562
0.0344318
0.0340008
0.033564
0.0331235
0.0326813
0.0545111
0.0540428
0.0535139
0.0529415
0.0523453
0.0517295
0.0511131
0.0504874
0.0498573
0.0492386
0.0486202
0.0480016
0.0474027
0.0468147
0.0462239
0.0456473
0.0450891
0.0445355
0.0439834
0.0434449
0.042929
0.0424295
0.041936
0.0414498
0.0409839
0.0405312
0.0400847
0.0396389
0.0391947
0.0387616
0.0383333
0.0379048
0.0374719
0.0370362
0.0365974
0.0361549
0.0357055
0.0352499
0.0347902
0.0343283
0.0564731
0.0560089
0.0554836
0.054917
0.0543277
0.0537192
0.053109
0.0524889
0.0518642
0.0512508
0.0506343
0.0500187
0.0494187
0.0488292
0.0482372
0.0476548
0.0470891
0.0465262
0.0459646
0.045416
0.044889
0.0443777
0.0438717
0.0433724
0.0428927
0.0424255
0.0419639
0.0415033
0.041044
0.0405953
0.0401509
0.0397059
0.0392563
0.0388035
0.0383473
0.037887
0.0374197
0.0369458
0.0364674
0.0359862
0.0584246
0.0579635
0.0574434
0.0568835
0.0563016
0.0557017
0.0550967
0.0544825
0.0538637
0.0532543
0.052641
0.0520279
0.0514285
0.0508376
0.0502435
0.0496584
0.0490862
0.0485138
0.0479431
0.0473849
0.0468474
0.046325
0.0458074
0.0452958
0.0448032
0.0443219
0.0438449
0.0433715
0.042898
0.0424341
0.0419741
0.0415132
0.0410473
0.0405779
0.0401047
0.0396273
0.0391425
0.0386508
0.0381541
0.0376541
0.0603653
0.0599075
0.0593931
0.0588404
0.0582662
0.0576735
0.0570752
0.0564678
0.0558562
0.0552502
0.0546404
0.0540297
0.0534327
0.05284
0.0522432
0.0516534
0.0510746
0.0504951
0.0499167
0.04935
0.048803
0.0482703
0.0477419
0.0472189
0.0467141
0.0462199
0.0457292
0.0452425
0.0447552
0.0442769
0.0438018
0.0433254
0.0428438
0.0423583
0.0418688
0.0413748
0.0408731
0.0403641
0.0398496
0.0393312
0.0622945
0.0618403
0.0613322
0.0607875
0.0602219
0.0596355
0.059044
0.0584436
0.0578382
0.0572372
0.0566326
0.0560234
0.0554274
0.0548355
0.0542366
0.0536408
0.0530541
0.0524691
0.0518842
0.05131
0.0507544
0.0502124
0.049674
0.0491405
0.0486244
0.048118
0.0476148
0.0471152
0.0466148
0.0461225
0.045633
0.0451416
0.0446447
0.0441438
0.0436386
0.0431285
0.0426105
0.0420848
0.0415531
0.041017
0.0642115
0.0637612
0.0632597
0.062724
0.0621651
0.0615862
0.0610024
0.0604106
0.0598106
0.0592146
0.0586142
0.058008
0.0574128
0.0568198
0.0562188
0.0556199
0.0550266
0.0544357
0.0538449
0.0532639
0.0527006
0.0521501
0.0516026
0.0510595
0.0505329
0.0500154
0.0495004
0.0489886
0.0484756
0.0479701
0.0474666
0.0469606
0.0464488
0.0459334
0.0454133
0.0448879
0.0443541
0.0438122
0.0432639
0.0427106
0.0661154
0.0656694
0.0651747
0.0646466
0.0640956
0.0635251
0.0629494
0.062365
0.0617721
0.0611828
0.060586
0.059984
0.0593898
0.0587944
0.0581901
0.0575859
0.056989
0.0563935
0.0557976
0.0552108
0.0546406
0.0540825
0.0535268
0.052975
0.0524387
0.0519108
0.0513848
0.0508617
0.0503368
0.0498187
0.0493017
0.0487809
0.0482558
0.0477267
0.0471923
0.0466521
0.0461031
0.0455457
0.0449813
0.0444115
0.0680052
0.0675639
0.0670774
0.0665559
0.0660132
0.0654519
0.0648854
0.0643074
0.0637225
0.0631379
0.0625466
0.0619467
0.0613534
0.0607583
0.0601511
0.0595419
0.058941
0.0583415
0.0577414
0.0571497
0.0565734
0.0560086
0.0554457
0.0548859
0.0543409
0.0538033
0.0532672
0.0527334
0.0521974
0.0516674
0.0511378
0.0506039
0.0500656
0.0495231
0.0489749
0.0484204
0.0478568
0.0472844
0.0467046
0.0461189
0.06988
0.0694432
0.0689637
0.0684506
0.0679173
0.0673661
0.0668067
0.0662363
0.0656581
0.0650792
0.0644924
0.0638966
0.063304
0.0627072
0.0620954
0.0614847
0.0608812
0.0602788
0.0596754
0.0590796
0.0584983
0.0579276
0.0573583
0.0567915
0.0562384
0.0556921
0.0551466
0.0546029
0.0540564
0.0535153
0.052974
0.0524278
0.051877
0.0513216
0.0507602
0.0501921
0.0496146
0.0490278
0.0484332
0.0478323
0.0717391
0.0713068
0.0708342
0.0703302
0.069807
0.069264
0.0687134
0.068152
0.0675801
0.0670078
0.0664247
0.06583
0.065237
0.0646373
0.0640253
0.0634138
0.0628089
0.0622045
0.0615987
0.0609998
0.0604144
0.0598388
0.0592638
0.0586908
0.0581306
0.0575762
0.057022
0.0564692
0.055913
0.0553614
0.0548092
0.0542517
0.053689
0.0531215
0.0525475
0.0519664
0.0513755
0.0507749
0.0501663
0.0495511
0.0735817
0.0731538
0.0726881
0.0721939
0.0716789
0.0711454
0.0706048
0.070051
0.0694871
0.0689198
0.0683392
0.0677475
0.0671543
0.0665527
0.0659405
0.0653289
0.0647233
0.0641179
0.0635107
0.0629096
0.0623209
0.0617412
0.0611615
0.0605831
0.0600164
0.0594548
0.0588928
0.0583314
0.057766
0.0572048
0.0566425
0.0560744
0.0555008
0.0549218
0.0543359
0.0537424
0.0531388
0.0525252
0.0519033
0.0512747
0.0754071
0.0749834
0.074524
0.0740382
0.0735327
0.0730099
0.0724776
0.071933
0.0713756
0.0708118
0.0702355
0.0696454
0.0690504
0.0684504
0.0678397
0.0672291
0.0666238
0.0660182
0.0654105
0.0648082
0.0642172
0.0636342
0.0630506
0.0624675
0.0618952
0.0613271
0.0607579
0.0601886
0.0596143
0.0590446
0.0584731
0.0578952
0.0573113
0.0567216
0.0561245
0.0555193
0.0549037
0.0542778
0.0536434
0.0530024
0.0772146
0.0767949
0.0763414
0.0758634
0.0753681
0.0748541
0.0743319
0.073795
0.0732427
0.0726839
0.0721105
0.0715203
0.0709281
0.0703307
0.0697225
0.0691139
0.0685098
0.067905
0.0672976
0.0666949
0.0661027
0.0655172
0.0649304
0.0643433
0.0637661
0.0631922
0.0626166
0.0620402
0.0614582
0.0608804
0.0603002
0.0597133
0.05912
0.0585203
0.0579126
0.0572964
0.0566693
0.0560319
0.0553859
0.0547337
0.0790037
0.0785879
0.0781398
0.0776686
0.0771817
0.076678
0.0761645
0.0756343
0.0750893
0.0745331
0.0739615
0.0733759
0.0727875
0.0721935
0.0715886
0.0709828
0.0703808
0.0697775
0.0691713
0.0685693
0.0679769
0.0673895
0.0668
0.0662097
0.0656282
0.0650492
0.0644679
0.0638853
0.0632964
0.0627112
0.062123
0.0615279
0.0609262
0.0603171
0.0596993
0.0590726
0.0584349
0.0577866
0.05713
0.0564679
0.0807734
0.0803616
0.0799188
0.0794539
0.078974
0.0784782
0.0779729
0.0774518
0.0769138
0.076361
0.0757934
0.0752124
0.0746284
0.0740385
0.0734377
0.0728354
0.0722361
0.0716351
0.0710309
0.0704304
0.0698399
0.0692504
0.0686586
0.0680656
0.0674807
0.0668974
0.0663111
0.0657228
0.0651278
0.0645358
0.0639404
0.0633379
0.0627296
0.0621109
0.0614835
0.060847
0.0601993
0.0595411
0.058875
0.0582044
0.0825233
0.0821155
0.0816779
0.081219
0.0807456
0.0802569
0.0797586
0.079245
0.078714
0.0781671
0.0776049
0.0770295
0.0764506
0.0758655
0.0752694
0.0746712
0.0740753
0.0734772
0.0728755
0.072277
0.0716876
0.0710977
0.0705049
0.0699103
0.0693226
0.0687357
0.0681451
0.0675518
0.0669513
0.0663533
0.0657513
0.065142
0.0645265
0.0638998
0.0632638
0.0626184
0.0619616
0.0612945
0.06062
0.0599427
0.0842524
0.0838489
0.0834166
0.0829637
0.0824966
0.0820145
0.0815229
0.0810162
0.0804921
0.0799518
0.0793961
0.0788269
0.0782537
0.0776739
0.0770831
0.0764896
0.0758977
0.0753032
0.0747046
0.0741085
0.0735205
0.0729312
0.0723382
0.0717429
0.0711532
0.0705632
0.0699689
0.0693712
0.0687659
0.0681624
0.0675546
0.066939
0.0663169
0.0656831
0.0650394
0.0643859
0.063721
0.063046
0.0623643
0.0616821
0.08596
0.0855609
0.0851341
0.0846872
0.0842265
0.0837511
0.0832661
0.0827662
0.0822491
0.0817156
0.0811667
0.0806043
0.0800373
0.0794634
0.0788783
0.0782901
0.0777028
0.0771123
0.0765176
0.0759247
0.0753385
0.0747503
0.074158
0.0735629
0.0729717
0.0723791
0.0717816
0.0711798
0.0705704
0.0699624
0.0693494
0.0687284
0.0681002
0.06746
0.0668095
0.0661488
0.0654766
0.0647946
0.0641071
0.063422
0.0876453
0.0872509
0.0868297
0.0863891
0.0859348
0.0854661
0.0849879
0.0844948
0.0839848
0.0834584
0.0829166
0.0823613
0.0818009
0.0812333
0.0806544
0.0800719
0.0794897
0.078904
0.0783139
0.077725
0.0771411
0.0765542
0.0759632
0.0753702
0.074777
0.0741823
0.0735822
0.0729759
0.0723637
0.0717521
0.0711349
0.0705091
0.0698757
0.0692298
0.0685732
0.0679061
0.0672275
0.0665395
0.0658476
0.0651618
0.0893075
0.088918
0.0885026
0.0880684
0.0876208
0.087159
0.0866876
0.0862015
0.0856987
0.0851797
0.0846453
0.0840974
0.083544
0.082983
0.0824107
0.0818344
0.0812578
0.0806773
0.0800925
0.0795096
0.0789272
0.0783419
0.0777523
0.0771605
0.0765671
0.0759713
0.0753706
0.0747607
0.0741456
0.0735308
0.0729101
0.0722805
0.0716426
0.0709918
0.0703297
0.0696569
0.0689727
0.0682798
0.0675849
0.0669008
0.0909458
0.0905614
0.0901521
0.0897246
0.0892838
0.0888291
0.0883646
0.0878858
0.0873905
0.086879
0.0863522
0.0858119
0.0852659
0.0847119
0.0841466
0.0835769
0.0830063
0.0824315
0.0818521
0.081274
0.0806949
0.0801122
0.0795246
0.0789342
0.0783411
0.0777446
0.0771415
0.0765311
0.0759146
0.0752976
0.0746743
0.0740419
0.0734001
0.0727449
0.0720781
0.0714003
0.0707113
0.0700145
0.0693181
0.068638
0.0925595
0.0921805
0.0917775
0.0913567
0.0909229
0.0904755
0.0900183
0.0895469
0.0890592
0.0885555
0.0880366
0.0875043
0.0869658
0.0864192
0.0858612
0.0852986
0.0847345
0.084166
0.0835924
0.0830192
0.0824439
0.0818643
0.0812793
0.0806908
0.0800986
0.0795021
0.0788983
0.0782873
0.0776699
0.0770514
0.0764264
0.0757932
0.0751473
0.074488
0.0738171
0.0731351
0.0724422
0.0717427
0.0710462
0.0703726
0.094148
0.0937746
0.093378
0.0929642
0.0925376
0.0920976
0.0916479
0.0911841
0.0907044
0.0902086
0.0896979
0.0891738
0.0886431
0.0881042
0.0875539
0.0869987
0.0864416
0.08588
0.0853131
0.0847448
0.0841735
0.0835975
0.0830161
0.0824296
0.0818386
0.0812427
0.0806392
0.0800282
0.0794106
0.0787913
0.078165
0.0775302
0.0768819
0.0762197
0.0755456
0.0748603
0.0741645
0.0734632
0.0727682
0.0721036
0.0957105
0.0953429
0.0949529
0.0945463
0.0941271
0.0936947
0.0932526
0.0927967
0.0923252
0.0918377
0.0913353
0.0908196
0.0902971
0.0897661
0.0892239
0.0886764
0.0881269
0.0875728
0.0870143
0.0864499
0.0858826
0.0853108
0.0847347
0.0841496
0.08356
0.0829653
0.0823628
0.0817528
0.0811358
0.0805164
0.0798893
0.0792532
0.0786033
0.0779391
0.0772626
0.0765749
0.075877
0.075175
0.0744829
0.0738297
0.0972464
0.0968849
0.0965017
0.0961024
0.0956907
0.0952662
0.0948319
0.0943841
0.093921
0.093442
0.0929482
0.0924412
0.091927
0.0914042
0.0908703
0.0903311
0.0897896
0.0892436
0.0886917
0.0881328
0.0875701
0.0870025
0.0864305
0.0858486
0.0852615
0.0846686
0.084068
0.0834599
0.0828449
0.0822258
0.0815983
0.0809615
0.0803106
0.0796452
0.0789673
0.0782779
0.0775788
0.0768771
0.0761893
0.0755498
0.0987553
0.0983999
0.0980237
0.0976318
0.0972279
0.0968113
0.0963851
0.0959457
0.0954912
0.095021
0.094536
0.0940377
0.0935322
0.0930179
0.0924926
0.0919619
0.0914289
0.0908924
0.0903461
0.0897926
0.089235
0.088672
0.0881041
0.087526
0.0869421
0.0863513
0.0857539
0.085149
0.0845378
0.0839188
0.0832907
0.0826541
0.0820031
0.0813373
0.0806587
0.0799685
0.0792691
0.0785686
0.0778861
0.0772626
0.100237
0.0998876
0.0995185
0.0991342
0.0987381
0.0983296
0.0979116
0.0974807
0.0970352
0.0965741
0.0960981
0.0956087
0.0951119
0.0946063
0.09409
0.0935682
0.0930437
0.0925153
0.0919759
0.0914286
0.0908766
0.0903185
0.0897547
0.0891813
0.0886016
0.0880143
0.0874202
0.086819
0.0862106
0.0855932
0.0849663
0.0843305
0.0836801
0.0830146
0.0823359
0.0816457
0.0809467
0.0802483
0.0795724
0.0789665
0.10169
0.101347
0.100985
0.100609
0.100221
0.0998204
0.0994108
0.0989887
0.0985524
0.0981012
0.0976339
0.0971534
0.0966655
0.096169
0.0956619
0.0951495
0.0946341
0.0941132
0.0935809
0.0930404
0.0924945
0.0919417
0.0913814
0.0908139
0.0902392
0.0896567
0.0890673
0.0884701
0.0878644
0.0872491
0.086624
0.0859897
0.0853406
0.0846762
0.0839983
0.0833087
0.0826108
0.0819151
0.0812467
0.0806602
0.103114
0.102779
0.102424
0.102056
0.101675
0.101283
0.100882
0.100469
0.100042
0.0996021
0.0991427
0.0986711
0.0981923
0.0977051
0.0972078
0.0967051
0.0962003
0.0956859
0.0951606
0.0946272
0.0940883
0.0935416
0.0929864
0.0924243
0.0918545
0.0912773
0.0906948
0.0901017
0.0894983
0.0888855
0.0882629
0.087631
0.0869839
0.0863212
0.0856448
0.0849565
0.0842603
0.0835682
0.082908
0.0823421
0.10451
0.104182
0.103835
0.103474
0.103102
0.102718
0.102326
0.101921
0.101503
0.101073
0.100623
0.100161
0.0996917
0.0992142
0.098727
0.0982345
0.0977384
0.0972317
0.0967141
0.0961886
0.0956576
0.0951174
0.094568
0.0940113
0.0934459
0.0928749
0.0922983
0.09171
0.09111
0.0905008
0.0898823
0.0892536
0.0886093
0.087949
0.0872746
0.0865882
0.0858944
0.0852063
0.084555
0.0840106
0.105877
0.105555
0.105216
0.104863
0.104499
0.104124
0.10374
0.103344
0.102936
0.102515
0.102075
0.101623
0.101163
0.100696
0.100219
0.099738
0.0992491
0.0987502
0.0982407
0.0977238
0.0972026
0.0966683
0.0961249
0.0955741
0.0950145
0.0944494
0.0938785
0.0932957
0.0927005
0.092096
0.0914823
0.0908572
0.090216
0.0895585
0.0888867
0.088203
0.0875121
0.0868285
0.0861865
0.0856643
0.107215
0.1069
0.106568
0.106224
0.105868
0.105502
0.105126
0.104739
0.10434
0.103928
0.103498
0.103056
0.102607
0.10215
0.101684
0.101212
0.100731
0.100241
0.0997399
0.099232
0.0987193
0.0981925
0.0976561
0.0971116
0.0965587
0.0960001
0.0954355
0.0948586
0.094269
0.09367
0.0930628
0.0924409
0.0918031
0.0911489
0.0904803
0.0897997
0.0891123
0.0884337
0.0878014
0.0873016
0.108523
0.108215
0.107891
0.107555
0.107208
0.10685
0.106483
0.106105
0.105715
0.105313
0.104893
0.104461
0.104022
0.103576
0.103121
0.102657
0.102185
0.101703
0.101211
0.100713
0.100209
0.0996899
0.0991609
0.0986227
0.0980779
0.0975267
0.0969688
0.0963982
0.0958146
0.0952214
0.0946197
0.0940026
0.0933691
0.092719
0.0920543
0.0913774
0.0906941
0.0900209
0.0893984
0.0889212
0.109801
0.109501
0.109185
0.108856
0.108518
0.108169
0.107811
0.107442
0.107061
0.106669
0.106258
0.105836
0.105408
0.104974
0.104528
0.104072
0.103609
0.103136
0.102655
0.102168
0.101671
0.10116
0.100639
0.100109
0.0995724
0.0990289
0.098478
0.0979139
0.0973367
0.0967496
0.0961536
0.0955418
0.0949133
0.094268
0.0936079
0.0929354
0.0922566
0.0915892
0.0909766
0.0905218
0.11105
0.110757
0.110449
0.110129
0.109799
0.109458
0.109109
0.108749
0.108378
0.107995
0.107595
0.107183
0.106764
0.10634
0.105903
0.105458
0.105004
0.104541
0.10407
0.103593
0.103105
0.102603
0.102091
0.10157
0.101042
0.100507
0.0999626
0.099405
0.0988344
0.0982543
0.0976643
0.0970581
0.096435
0.0957952
0.0951402
0.0944727
0.093799
0.0931378
0.092535
0.0921023
0.112269
0.111984
0.111683
0.111371
0.11105
0.110718
0.110378
0.110027
0.109666
0.109293
0.108903
0.108501
0.108091
0.107676
0.107249
0.106813
0.10637
0.105917
0.105458
0.104989
0.10451
0.104019
0.103515
0.103004
0.102487
0.10196
0.101421
0.10087
0.100307
0.0997353
0.0991509
0.0985505
0.0979335
0.0972997
0.0966505
0.0959887
0.0953207
0.0946658
0.0940729
0.0936616
0.113459
0.113181
0.112888
0.112585
0.112271
0.111948
0.111617
0.111276
0.110924
0.110561
0.110182
0.109789
0.109389
0.108981
0.108565
0.10814
0.107706
0.107264
0.106814
0.106355
0.105885
0.105404
0.104911
0.104411
0.103902
0.103383
0.102852
0.102308
0.101752
0.101189
0.100612
0.100018
0.0994081
0.098781
0.0981384
0.0974828
0.0968209
0.0961728
0.0955895
0.0951989
0.114619
0.114348
0.114064
0.113768
0.113464
0.113149
0.112827
0.112495
0.112152
0.1118
0.111433
0.111049
0.110658
0.110259
0.109853
0.109438
0.109014
0.108581
0.108141
0.107691
0.107231
0.10676
0.106278
0.105788
0.105288
0.104777
0.104254
0.103719
0.103171
0.102616
0.102046
0.101461
0.100858
0.100239
0.0996033
0.0989545
0.0982993
0.0976581
0.0970842
0.0967133
0.11575
0.115486
0.11521
0.114923
0.114626
0.114321
0.114007
0.113684
0.113351
0.113009
0.112652
0.112279
0.111898
0.111509
0.111113
0.110707
0.110293
0.109869
0.109439
0.108998
0.108549
0.108088
0.107617
0.107136
0.106645
0.106143
0.105628
0.105102
0.104563
0.104016
0.103456
0.102878
0.102284
0.101673
0.101045
0.100404
0.0997554
0.0991213
0.0985566
0.0982043
0.116851
0.116595
0.116326
0.116048
0.11576
0.115463
0.115159
0.114845
0.114521
0.114188
0.113842
0.113479
0.113108
0.112729
0.112343
0.111948
0.111543
0.111129
0.110706
0.110277
0.109838
0.109387
0.108926
0.108455
0.107973
0.107481
0.106976
0.106458
0.105929
0.105391
0.104839
0.104271
0.103686
0.103083
0.102463
0.10183
0.101189
0.100562
0.100006
0.0996714
0.117923
0.117675
0.117414
0.117144
0.116864
0.116576
0.116281
0.115976
0.115662
0.115338
0.115003
0.114651
0.11429
0.113921
0.113545
0.113159
0.112765
0.112361
0.111947
0.111528
0.111098
0.110658
0.110207
0.109746
0.109274
0.108791
0.108296
0.107788
0.107268
0.10674
0.106198
0.105639
0.105063
0.104469
0.103858
0.103233
0.1026
0.10198
0.101433
0.101114
0.118967
0.118726
0.118473
0.118211
0.11794
0.117661
0.117374
0.117078
0.116773
0.11646
0.116134
0.115793
0.115443
0.115084
0.114717
0.114342
0.113958
0.113564
0.11316
0.11275
0.112331
0.111901
0.111461
0.111008
0.110547
0.110074
0.109589
0.109092
0.108582
0.108064
0.107531
0.106982
0.106415
0.10583
0.105229
0.104612
0.103987
0.103375
0.102836
0.102532
0.119982
0.119748
0.119503
0.119249
0.118987
0.118716
0.118438
0.118152
0.117856
0.117553
0.117238
0.116908
0.116568
0.116218
0.11586
0.115496
0.115122
0.114739
0.114346
0.113944
0.113536
0.113117
0.112686
0.112244
0.111792
0.11133
0.110855
0.110368
0.10987
0.109362
0.10884
0.1083
0.107743
0.107168
0.106575
0.105968
0.105352
0.104747
0.104216
0.103925
0.120968
0.120742
0.120505
0.12026
0.120006
0.119744
0.119474
0.119197
0.118911
0.118617
0.118312
0.117995
0.117664
0.117325
0.116976
0.116622
0.116259
0.115886
0.115503
0.115112
0.114713
0.114305
0.113885
0.113453
0.113012
0.112559
0.112095
0.111619
0.111134
0.110636
0.110123
0.109593
0.109046
0.108481
0.107898
0.1073
0.106692
0.106096
0.105571
0.105293
0.121927
0.121709
0.12148
0.121242
0.120997
0.120743
0.120483
0.120214
0.119937
0.119653
0.119358
0.119052
0.118732
0.118403
0.118065
0.117721
0.117368
0.117005
0.116633
0.116252
0.115863
0.115465
0.115056
0.114635
0.114204
0.113762
0.113309
0.112844
0.11237
0.111883
0.11138
0.110861
0.110324
0.109769
0.109196
0.108608
0.108009
0.107421
0.106903
0.106635
0.122859
0.122648
0.122426
0.122197
0.12196
0.121715
0.121463
0.121204
0.120936
0.120661
0.120376
0.120081
0.119772
0.119453
0.119125
0.118791
0.118449
0.118097
0.117735
0.117364
0.116986
0.116598
0.1162
0.11579
0.11537
0.114939
0.114497
0.114044
0.113581
0.113104
0.112612
0.112103
0.111576
0.111032
0.11047
0.109891
0.109302
0.108722
0.108211
0.107952
0.123764
0.12356
0.123346
0.123125
0.122896
0.122659
0.122416
0.122166
0.121907
0.121642
0.121367
0.121082
0.120785
0.120476
0.120159
0.119834
0.119502
0.119161
0.11881
0.11845
0.118082
0.117705
0.117317
0.116918
0.116509
0.116089
0.115658
0.115219
0.114766
0.1143
0.113818
0.11332
0.112804
0.11227
0.111719
0.111151
0.110571
0.109999
0.109494
0.109242
0.124642
0.124445
0.124239
0.124026
0.123805
0.123577
0.123343
0.123101
0.122852
0.122595
0.12233
0.122056
0.121771
0.121473
0.121165
0.12085
0.120529
0.120199
0.119859
0.11951
0.119152
0.118784
0.118408
0.11802
0.117622
0.117213
0.116794
0.116366
0.115924
0.115469
0.114999
0.114511
0.114007
0.113484
0.112943
0.112386
0.111816
0.111252
0.110753
0.110507
0.125494
0.125304
0.125106
0.1249
0.124688
0.124469
0.124243
0.12401
0.12377