/*--------------------------------*- C++ -*----------------------------------*\
| =========                 |                                                 |
| \\      /  F ield         | OpenFOAM: The Open Source CFD Toolbox           |
|  \\    /   O peration     | Version:  3.0.1                                 |
|   \\  /    A nd           | Web:      www.OpenFOAM.org                      |
|    \\/     M anipulation  |                                                 |
\*---------------------------------------------------------------------------*/
FoamFile
{
    version     2.0;
    format      ascii;
    class       volScalarField;
    location    "500";
    object      p;
}
// * * * * * * * * * * * * * * * * * * * * * * * * * * * * * * * * * * * * * //

dimensions      [0 2 -2 0 0 0 0];

internalField   nonuniform List<scalar> 
58000
(
-0.183008
-0.471345
-0.684404
-0.802924
-0.869984
-0.916904
-0.946706
-0.96375
-0.971323
-0.969579
-0.962065
-0.950515
-0.934851
-0.917404
-0.900357
-0.884391
-0.869209
-0.855344
-0.842714
-0.830819
-0.819137
-0.808279
-0.798183
-0.788403
-0.778471
-0.768552
-0.75921
-0.750205
-0.741188
-0.731973
-0.722779
-0.714033
-0.705549
-0.697059
-0.688375
-0.678643
-0.665951
-0.65282
-0.642334
-0.633944
0.171004
0.0340889
-0.116687
-0.262479
-0.386169
-0.492649
-0.582559
-0.662432
-0.72601
-0.773079
-0.807601
-0.829527
-0.840663
-0.844794
-0.842901
-0.836535
-0.828031
-0.81844
-0.8082
-0.79777
-0.787522
-0.777561
-0.767666
-0.757884
-0.748213
-0.738986
-0.729848
-0.720732
-0.711614
-0.702532
-0.693825
-0.685188
-0.676534
-0.667783
-0.658981
-0.650077
-0.640314
-0.630495
-0.622537
-0.617386
0.111053
0.00985599
-0.0937594
-0.199489
-0.297542
-0.387881
-0.468728
-0.539418
-0.601753
-0.651909
-0.692121
-0.723262
-0.744574
-0.758314
-0.766405
-0.769345
-0.768534
-0.765327
-0.760498
-0.754561
-0.747969
-0.740949
-0.733573
-0.725997
-0.718361
-0.710745
-0.702963
-0.695082
-0.687138
-0.679254
-0.671438
-0.663515
-0.65552
-0.647436
-0.639327
-0.631195
-0.622804
-0.61436
-0.606488
-0.599079
0.13557
0.0686056
-0.00508828
-0.0870881
-0.171086
-0.254124
-0.331889
-0.403442
-0.468911
-0.524787
-0.572839
-0.613324
-0.64448
-0.66786
-0.68556
-0.697405
-0.704107
-0.707289
-0.707945
-0.70652
-0.70349
-0.69935
-0.694414
-0.688865
-0.682893
-0.676632
-0.670055
-0.66323
-0.656177
-0.649043
-0.641894
-0.63459
-0.627149
-0.619563
-0.611917
-0.604318
-0.596689
-0.589037
-0.581574
-0.574322
0.118757
0.0696207
0.0171496
-0.0428129
-0.107317
-0.175005
-0.242594
-0.307423
-0.369755
-0.425381
-0.475212
-0.519406
-0.555617
-0.584611
-0.608459
-0.626602
-0.639185
-0.647822
-0.653506
-0.656511
-0.657209
-0.656254
-0.654131
-0.651047
-0.647183
-0.642667
-0.637645
-0.632217
-0.626418
-0.620408
-0.614205
-0.607763
-0.601122
-0.594288
-0.587365
-0.58043
-0.573449
-0.566393
-0.559306
-0.552157
0.110471
0.0719454
0.0314131
-0.0149129
-0.065515
-0.120137
-0.177073
-0.233606
-0.29019
-0.34272
-0.391507
-0.436521
-0.475166
-0.507608
-0.535665
-0.558459
-0.575693
-0.588865
-0.598892
-0.605872
-0.610046
-0.612147
-0.612766
-0.612109
-0.610323
-0.60756
-0.604106
-0.600086
-0.59554
-0.590616
-0.585348
-0.579765
-0.573913
-0.567802
-0.561532
-0.555187
-0.548761
-0.542211
-0.535529
-0.528718
0.100153
0.0689439
0.03667
-9.93041e-05
-0.0404352
-0.0845634
-0.131902
-0.179992
-0.229745
-0.27747
-0.323103
-0.366615
-0.405419
-0.43917
-0.469433
-0.495152
-0.51565
-0.532248
-0.54575
-0.55609
-0.563346
-0.568252
-0.571457
-0.573148
-0.573432
-0.572452
-0.570612
-0.568052
-0.564819
-0.561054
-0.556793
-0.552133
-0.547127
-0.541794
-0.53623
-0.530512
-0.524655
-0.518619
-0.512373
-0.505934
0.0911718
0.0649722
0.0382807
0.00810371
-0.0248853
-0.0610881
-0.100583
-0.141244
-0.184345
-0.226759
-0.268256
-0.308903
-0.346319
-0.379797
-0.410676
-0.437847
-0.460345
-0.479286
-0.495343
-0.508312
-0.518108
-0.525417
-0.530908
-0.534726
-0.536935
-0.537648
-0.53736
-0.536218
-0.534272
-0.531651
-0.528395
-0.524656
-0.520497
-0.515937
-0.511072
-0.505974
-0.50068
-0.495155
-0.489362
-0.483347
0.0830415
0.0605524
0.0379077
0.0124896
-0.0151382
-0.0454009
-0.0787127
-0.113232
-0.15043
-0.187739
-0.224881
-0.262044
-0.297159
-0.329306
-0.359643
-0.387108
-0.41054
-0.430846
-0.448578
-0.463435
-0.47519
-0.484442
-0.491844
-0.497492
-0.501413
-0.50367
-0.504821
-0.505011
-0.504288
-0.502771
-0.500492
-0.497656
-0.494328
-0.490532
-0.48636
-0.481879
-0.477144
-0.472131
-0.4668
-0.461223
0.0758254
0.0561599
0.036545
0.0146759
-0.00894642
-0.0347164
-0.0631943
-0.0927664
-0.124974
-0.157716
-0.190721
-0.224291
-0.25669
-0.286909
-0.315958
-0.342879
-0.366415
-0.387287
-0.405938
-0.422008
-0.435154
-0.445872
-0.454781
-0.461923
-0.467295
-0.470899
-0.473329
-0.474722
-0.475118
-0.474627
-0.473269
-0.47129
-0.468756
-0.465692
-0.462187
-0.458304
-0.454115
-0.449603
-0.444732
-0.439597
0.0694174
0.0519737
0.0347044
0.0155657
-0.004986
-0.0272985
-0.0519782
-0.077592
-0.105664
-0.134467
-0.163759
-0.193916
-0.223513
-0.251536
-0.278879
-0.304714
-0.327766
-0.348602
-0.367567
-0.384275
-0.398302
-0.410044
-0.420066
-0.428364
-0.434909
-0.43964
-0.443164
-0.445606
-0.446994
-0.447428
-0.446915
-0.445728
-0.443932
-0.441555
-0.43868
-0.435365
-0.431698
-0.42767
-0.423244
-0.418545
0.0637244
0.0480727
0.0326679
0.0156862
-0.00245154
-0.0220479
-0.0437068
-0.0661435
-0.0908143
-0.116279
-0.14233
-0.169388
-0.196292
-0.222076
-0.247534
-0.271975
-0.294156
-0.314522
-0.333346
-0.350236
-0.36472
-0.377095
-0.387877
-0.397013
-0.404459
-0.410092
-0.414517
-0.417842
-0.420081
-0.421328
-0.421569
-0.421096
-0.419972
-0.418223
-0.415931
-0.413148
-0.409972
-0.406401
-0.4024
-0.398119
0.0586559
0.0444806
0.0305928
0.0153549
-0.000843227
-0.0182637
-0.0374848
-0.0573486
-0.079217
-0.101871
-0.125134
-0.149445
-0.173867
-0.197496
-0.221043
-0.243944
-0.265025
-0.28464
-0.303003
-0.319733
-0.334333
-0.347019
-0.358253
-0.367948
-0.376045
-0.382369
-0.387506
-0.391547
-0.394496
-0.396435
-0.397331
-0.397487
-0.396961
-0.395777
-0.394014
-0.391719
-0.388997
-0.385851
-0.382249
-0.378363
0.0541313
0.0411946
0.0285651
0.0147656
0.000156823
-0.0154888
-0.0327127
-0.0504664
-0.0700099
-0.0902976
-0.111177
-0.133086
-0.155266
-0.176888
-0.198591
-0.219924
-0.239797
-0.258491
-0.276179
-0.292504
-0.306964
-0.319705
-0.33114
-0.341154
-0.349682
-0.356505
-0.362181
-0.366783
-0.370303
-0.372814
-0.374264
-0.374961
-0.374956
-0.374272
-0.372981
-0.371126
-0.368817
-0.36606
-0.362826
-0.359309
0.050081
0.0381999
0.0266319
0.0140391
0.000755194
-0.0134179
-0.0289811
-0.0449824
-0.0625794
-0.0808653
-0.0997066
-0.119529
-0.13971
-0.159499
-0.179476
-0.199281
-0.217914
-0.235605
-0.25249
-0.268245
-0.282377
-0.29498
-0.306418
-0.316555
-0.325325
-0.332477
-0.338538
-0.343559
-0.347522
-0.350493
-0.352401
-0.353551
-0.353992
-0.353739
-0.352864
-0.3514
-0.349459
-0.347054
-0.344157
-0.340978
0.0464449
0.0354754
0.0248159
0.0132508
0.00108819
-0.0118449
-0.0260085
-0.0405364
-0.056488
-0.0730691
-0.0901628
-0.108173
-0.126585
-0.144722
-0.163112
-0.181465
-0.198875
-0.215534
-0.231552
-0.246634
-0.26031
-0.272632
-0.283921
-0.294028
-0.302889
-0.310228
-0.316537
-0.321853
-0.326143
-0.329469
-0.331746
-0.333268
-0.334079
-0.334194
-0.333675
-0.332553
-0.330939
-0.328848
-0.326253
-0.323382
0.0431712
0.0329973
0.0231255
0.0124473
0.0012466
-0.010628
-0.0235972
-0.0368719
-0.0514191
-0.0665375
-0.0821237
-0.098556
-0.115406
-0.132064
-0.149007
-0.166006
-0.182244
-0.197879
-0.213006
-0.22736
-0.240498
-0.25244
-0.263468
-0.273428
-0.282259
-0.289668
-0.296112
-0.301611
-0.306129
-0.309717
-0.312279
-0.314098
-0.315212
-0.315631
-0.315416
-0.314588
-0.313258
-0.311443
-0.309118
-0.306524
0.0402152
0.0307428
0.0215614
0.0116575
0.00129191
-0.00966827
-0.0216065
-0.0338032
-0.0471401
-0.0609937
-0.0752714
-0.0903252
-0.105795
-0.121131
-0.136765
-0.152515
-0.167644
-0.18229
-0.196534
-0.210138
-0.22269
-0.234186
-0.244875
-0.2546
-0.263305
-0.27069
-0.277174
-0.282767
-0.287425
-0.291193
-0.293966
-0.296015
-0.297369
-0.298037
-0.298072
-0.297494
-0.296409
-0.294834
-0.292747
-0.290401
0.0375394
0.0286908
0.0201202
0.0108988
0.00126591
-0.00889562
-0.0199346
-0.0311947
-0.043479
-0.0562303
-0.0693653
-0.0832087
-0.0974552
-0.11161
-0.126061
-0.140666
-0.154762
-0.168467
-0.181853
-0.194709
-0.206651
-0.21766
-0.227957
-0.237385
-0.245894
-0.25318
-0.259627
-0.265239
-0.269965
-0.273843
-0.276764
-0.278981
-0.28052
-0.281384
-0.281625
-0.281255
-0.280378
-0.279009
-0.27713
-0.275002
0.0351115
0.0268219
0.0187961
0.0101816
0.00119758
-0.00825954
-0.0185071
-0.0289458
-0.0403068
-0.05209
-0.0642202
-0.0769956
-0.0901545
-0.10325
-0.116635
-0.130194
-0.143332
-0.156153
-0.168718
-0.180841
-0.192169
-0.20267
-0.212542
-0.221631
-0.22989
-0.237021
-0.243373
-0.248943
-0.253676
-0.257605
-0.260618
-0.262952
-0.264626
-0.265641
-0.266044
-0.265845
-0.265142
-0.26395
-0.262251
-0.260313
0.0329034
0.0251184
0.0175824
0.00951157
0.00110688
-0.00772357
-0.0172687
-0.0269812
-0.037526
-0.048453
-0.0596938
-0.0715215
-0.08371
-0.095856
-0.108277
-0.120882
-0.133137
-0.145132
-0.156918
-0.168334
-0.179056
-0.189044
-0.198473
-0.207194
-0.215166
-0.222099
-0.228311
-0.233791
-0.238482
-0.242415
-0.245472
-0.247877
-0.249643
-0.25077
-0.2513
-0.251238
-0.250678
-0.249633
-0.248089
-0.246317
0.0308907
0.0235641
0.0164715
0.00889133
0.00100737
-0.00726179
-0.0161787
-0.0252439
-0.0350623
-0.0452267
-0.0556755
-0.0666578
-0.0779767
-0.0892678
-0.100818
-0.112553
-0.123993
-0.135218
-0.146274
-0.157015
-0.167146
-0.176624
-0.185603
-0.193942
-0.201603
-0.208308
-0.214345
-0.219698
-0.224308
-0.228204
-0.231268
-0.233706
-0.235528
-0.236732
-0.237356
-0.237401
-0.236956
-0.236035
-0.234622
-0.232993
0.0290524
0.0221443
0.0154556
0.0083208
0.000907956
-0.00685488
-0.0152063
-0.0236907
-0.0328579
-0.0423392
-0.0520783
-0.0623022
-0.0728384
-0.0833571
-0.0941174
-0.10506
-0.11575
-0.12626
-0.136629
-0.146731
-0.156293
-0.165272
-0.173804
-0.181755
-0.189091
-0.195546
-0.201383
-0.20658
-0.211081
-0.214908
-0.217946
-0.220386
-0.222233
-0.223484
-0.224174
-0.224301
-0.223947
-0.223126
-0.221825
-0.220319
0.0273701
0.020846
0.014527
0.00779892
0.000815095
-0.0064884
-0.0143278
-0.0222874
-0.0308673
-0.039733
-0.0488327
-0.0583729
-0.0682015
-0.07802
-0.0880628
-0.0982806
-0.108281
-0.118128
-0.127856
-0.137354
-0.146373
-0.154868
-0.162961
-0.170524
-0.177529
-0.183722
-0.18934
-0.194361
-0.198729
-0.202463
-0.20545
-0.207865
-0.209711
-0.210985
-0.211716
-0.211902
-0.211619
-0.210879
-0.209671
-0.208269
0.025828
0.0196578
0.0136788
0.00732392
0.000732874
-0.00615135
-0.0135247
-0.0210077
-0.0290547
-0.0373626
-0.0458835
-0.0548047
-0.0639914
-0.0731732
-0.0825619
-0.0921161
-0.101481
-0.110714
-0.119845
-0.128774
-0.137277
-0.145306
-0.152972
-0.160153
-0.166826
-0.172749
-0.178138
-0.182969
-0.187186
-0.190807
-0.193722
-0.196092
-0.197917
-0.199192
-0.199945
-0.200171
-0.19994
-0.199265
-0.198134
-0.19682
0.0244121
0.0185692
0.0129044
0.00689355
0.000663562
-0.00583612
-0.0127832
-0.019831
-0.0273927
-0.0351926
-0.0431869
-0.0515454
-0.0601475
-0.0687481
-0.0775387
-0.0864842
-0.095263
-0.103927
-0.112501
-0.120897
-0.12891
-0.136495
-0.143748
-0.150557
-0.156899
-0.16255
-0.167704
-0.172335
-0.176389
-0.179884
-0.182711
-0.185019
-0.186806
-0.188065
-0.188822
-0.189072
-0.188878
-0.188253
-0.187186
-0.185947
0.0231099
0.017571
0.0121976
0.00650503
0.000608308
-0.00553724
-0.0120926
-0.0187413
-0.0258587
-0.0331942
-0.0407075
-0.0485522
-0.05662
-0.0646883
-0.0729301
-0.0813157
-0.0895536
-0.0976892
-0.105745
-0.113642
-0.121192
-0.128352
-0.135209
-0.141657
-0.147676
-0.153056
-0.157972
-0.162398
-0.166282
-0.169639
-0.172367
-0.1746
-0.176335
-0.177564
-0.178312
-0.178572
-0.178402
-0.177814
-0.176799
-0.175623
0.0219107
0.0166549
0.0115528
0.00615555
0.000567652
-0.00525055
-0.0114444
-0.0177254
-0.0244347
-0.031344
-0.0384159
-0.0457896
-0.0533674
-0.0609467
-0.0686837
-0.0765531
-0.0842905
-0.0919362
-0.0995092
-0.106938
-0.114052
-0.120809
-0.127287
-0.133387
-0.139091
-0.144204
-0.148882
-0.153101
-0.156811
-0.160024
-0.162643
-0.16479
-0.166463
-0.167652
-0.16838
-0.168638
-0.168482
-0.167921
-0.166948
-0.165823
0.0208045
0.0158133
0.0109645
0.00584228
0.00054149
-0.0049728
-0.010832
-0.0167731
-0.023106
-0.0296224
-0.0362878
-0.043228
-0.0503548
-0.057484
-0.0647559
-0.0721484
-0.0794217
-0.0866116
-0.0937343
-0.100725
-0.107428
-0.113803
-0.11992
-0.125686
-0.131086
-0.135937
-0.140381
-0.144393
-0.147926
-0.150991
-0.153495
-0.15555
-0.157153
-0.158293
-0.158991
-0.159239
-0.159087
-0.158545
-0.157606
-0.156523
0.0197829
0.0150395
0.0104278
0.00556238
0.000529344
-0.00470192
-0.0102501
-0.015876
-0.0218605
-0.0280133
-0.0343033
-0.0408436
-0.0475539
-0.054267
-0.0611093
-0.0680605
-0.0749027
-0.0816681
-0.0883708
-0.0949509
-0.101268
-0.107282
-0.113055
-0.118502
-0.123609
-0.128205
-0.132419
-0.136227
-0.139583
-0.142498
-0.144884
-0.146842
-0.148368
-0.149453
-0.150114
-0.150344
-0.15019
-0.14966
-0.148746
-0.147699
0.0188381
0.0143272
0.00993792
0.00531308
0.000530633
-0.00443622
-0.0096949
-0.0150274
-0.0206882
-0.0265039
-0.0324459
-0.0386159
-0.0449409
-0.0512683
-0.057712
-0.0642539
-0.0706956
-0.0770657
-0.083376
-0.089572
-0.0955249
-0.101198
-0.106645
-0.111788
-0.116613
-0.120962
-0.124953
-0.128561
-0.131742
-0.134506
-0.136771
-0.138629
-0.140075
-0.141099
-0.141719
-0.141926
-0.141763
-0.141238
-0.140346
-0.139327
0.0179632
0.0136709
0.00949088
0.0050919
0.000544631
-0.00417467
-0.00916297
-0.0142216
-0.019581
-0.0250832
-0.0307016
-0.0365278
-0.0424952
-0.0484644
-0.054538
-0.0606992
-0.0667679
-0.0727695
-0.0787131
-0.084549
-0.0901595
-0.09551
-0.100648
-0.105501
-0.110057
-0.114169
-0.117943
-0.121355
-0.124365
-0.12698
-0.129124
-0.13088
-0.132242
-0.133203
-0.133777
-0.133957
-0.133781
-0.133257
-0.13238
-0.131384
0.017152
0.0130659
0.00908303
0.0048966
0.000570418
-0.0039166
-0.00865186
-0.0134542
-0.0185322
-0.023742
-0.0290588
-0.034565
-0.0401994
-0.0458352
-0.0515644
-0.0573712
-0.063092
-0.0687492
-0.0743497
-0.0798481
-0.0851369
-0.0901827
-0.0950284
-0.0996061
-0.103904
-0.107788
-0.111353
-0.114575
-0.117418
-0.119886
-0.121909
-0.123563
-0.124841
-0.125737
-0.126262
-0.126411
-0.126218
-0.125691
-0.124826
-0.123849
0.016399
0.0125075
0.008711
0.00472497
0.000606892
-0.0036617
-0.00815944
-0.0127213
-0.0175362
-0.0224725
-0.0275075
-0.0327151
-0.038039
-0.0433636
-0.0487714
-0.0542478
-0.0596438
-0.0649788
-0.0702583
-0.0754401
-0.0804259
-0.0851845
-0.0897534
-0.0940696
-0.0981227
-0.101788
-0.105152
-0.108191
-0.11087
-0.113194
-0.115098
-0.11665
-0.117845
-0.118674
-0.119149
-0.119264
-0.119052
-0.11852
-0.117662
-0.1167
0.0156992
0.0119917
0.00837163
0.00457482
0.00065303
-0.00340966
-0.0076839
-0.0120197
-0.0165878
-0.021268
-0.0260393
-0.0309676
-0.0360013
-0.0410348
-0.0461423
-0.05131
-0.0564024
-0.0614359
-0.0664144
-0.0712991
-0.076
-0.0804872
-0.0847943
-0.0888627
-0.0926825
-0.096139
-0.0993091
-0.102171
-0.104693
-0.106878
-0.108665
-0.110117
-0.111228
-0.111989
-0.112414
-0.112494
-0.112261
-0.11172
-0.110869
-0.109918
0.0150482
0.0115151
0.00806202
0.00444411
0.000707907
-0.00316026
-0.00722398
-0.0113469
-0.0156831
-0.0201229
-0.0246466
-0.0293133
-0.0340752
-0.038836
-0.0436626
-0.0485419
-0.0533498
-0.0581005
-0.0627968
-0.0674025
-0.0718348
-0.0760662
-0.0801257
-0.0839593
-0.0875574
-0.0908144
-0.0937993
-0.096492
-0.098861
-0.100911
-0.102584
-0.103938
-0.104966
-0.105662
-0.106035
-0.106079
-0.105823
-0.105273
-0.104425
-0.103482
0.0144421
0.0110741
0.00777957
0.00433111
0.000770705
-0.00291353
-0.00677868
-0.0107007
-0.0148187
-0.0190323
-0.0233231
-0.0277442
-0.0322511
-0.0367564
-0.04132
-0.045929
-0.0504702
-0.0549558
-0.0593868
-0.06373
-0.0679097
-0.0718995
-0.075725
-0.0793362
-0.0827237
-0.0857905
-0.0885986
-0.0911285
-0.0933515
-0.0952709
-0.0968339
-0.0980918
-0.0990393
-0.0996691
-0.0999911
-0.0999997
-0.0997202
-0.0991588
-0.0983126
-0.0973766
0.0138771
0.010666
0.007522
0.00423426
0.000840489
-0.0026696
-0.00634704
-0.0100791
-0.0139913
-0.0179917
-0.0220634
-0.0262534
-0.030521
-0.0347865
-0.0391033
-0.043459
-0.0477497
-0.0519859
-0.0561678
-0.0602642
-0.0642057
-0.0679675
-0.0715718
-0.0749724
-0.0781601
-0.081046
-0.0836851
-0.0860598
-0.0881424
-0.0899363
-0.0913927
-0.0925579
-0.0934265
-0.0939924
-0.0942639
-0.0942365
-0.0939333
-0.0933601
-0.0925145
-0.091583
0.01335
0.0102881
0.00728724
0.00415202
0.000916363
-0.0024285
-0.0059283
-0.00948056
-0.0131983
-0.0169976
-0.0208626
-0.0248353
-0.028878
-0.0329181
-0.0370031
-0.0411206
-0.0451759
-0.0491777
-0.0531251
-0.0569891
-0.0607062
-0.0642527
-0.067648
-0.0708492
-0.0738476
-0.0765611
-0.0790396
-0.0812656
-0.0832143
-0.084888
-0.0862415
-0.087317
-0.0881096
-0.0886128
-0.0888353
-0.0887723
-0.0884454
-0.0878599
-0.087014
-0.0860856
0.0128578
0.00993792
0.00707336
0.00408307
0.000997611
-0.00219039
-0.00552178
-0.00890353
-0.0124375
-0.0160469
-0.0197169
-0.0234848
-0.027316
-0.031144
-0.0350107
-0.0389043
-0.0427381
-0.046519
-0.0502458
-0.053891
-0.0573962
-0.0607395
-0.0639373
-0.0669498
-0.0697686
-0.0723186
-0.0746439
-0.0767287
-0.0785492
-0.0801077
-0.0813626
-0.0823519
-0.0830707
-0.0835139
-0.0836884
-0.0835908
-0.0832402
-0.0826425
-0.0817956
-0.0808691
0.0123979
0.0096132
0.00687859
0.00402621
0.00108356
-0.00195541
-0.0051271
-0.00834713
-0.0117071
-0.0151369
-0.0186227
-0.0221978
-0.0258297
-0.0294574
-0.0331186
-0.0368013
-0.0404264
-0.0439994
-0.0475182
-0.0509571
-0.0542627
-0.0574137
-0.0604248
-0.0632588
-0.0659076
-0.0683021
-0.0704821
-0.0724321
-0.0741307
-0.0755792
-0.0767395
-0.077646
-0.0782945
-0.0786793
-0.0788078
-0.0786764
-0.078303
-0.0776931
-0.0768449
-0.0759195
0.0119677
0.00931186
0.00670124
0.00398022
0.00117353
-0.00172375
-0.00474393
-0.0078105
-0.0110056
-0.0142654
-0.0175773
-0.0209701
-0.0244137
-0.0278526
-0.0313198
-0.0348039
-0.0382322
-0.041609
-0.0449318
-0.0481764
-0.0512932
-0.0542627
-0.0570972
-0.0597624
-0.0622502
-0.0644973
-0.0665391
-0.0683614
-0.0699435
-0.0712872
-0.0723574
-0.0731849
-0.0737655
-0.0740947
-0.0741789
-0.074015
-0.0736197
-0.0729979
-0.0721483
-0.0712234
0.0115649
0.00903198
0.00653972
0.0039439
0.00126674
-0.00149566
-0.00437198
-0.00729277
-0.0103317
-0.0134306
-0.0165775
-0.0197981
-0.0230639
-0.0263242
-0.0296085
-0.032905
-0.0361476
-0.0393395
-0.0424772
-0.0455383
-0.0484771
-0.051275
-0.0539426
-0.0564481
-0.0587836
-0.0608908
-0.0628016
-0.0645022
-0.0659741
-0.0672181
-0.0682021
-0.0689542
-0.0694705
-0.0697463
-0.0697882
-0.0695934
-0.0691771
-0.0685441
-0.0676932
-0.0667686
0.0111875
0.0087718
0.00639258
0.00391617
0.00136251
-0.00127142
-0.00401099
-0.00679315
-0.00968405
-0.0126304
-0.0156211
-0.0186785
-0.0217762
-0.0248677
-0.0279789
-0.0310985
-0.0341657
-0.0371828
-0.0401459
-0.0430339
-0.0458044
-0.0484402
-0.05095
-0.0533045
-0.0554957
-0.0574705
-0.0592568
-0.0608424
-0.0622093
-0.0633586
-0.0642609
-0.0649414
-0.0653961
-0.0656216
-0.0656232
-0.0653991
-0.0649629
-0.0643195
-0.0634676
-0.0625433
0.0108335
0.00852972
0.00625853
0.00389606
0.0014602
-0.00105128
-0.00366069
-0.0063111
-0.00906136
-0.011863
-0.0147055
-0.0176083
-0.0205469
-0.0234786
-0.0264263
-0.0293787
-0.0322802
-0.0351321
-0.0379302
-0.0406546
-0.0432663
-0.0457488
-0.0481095
-0.050321
-0.0523758
-0.054225
-0.0558937
-0.0573699
-0.0586376
-0.0596971
-0.0605218
-0.0611341
-0.0615309
-0.0617084
-0.0616721
-0.0614203
-0.0609657
-0.0603128
-0.0594603
-0.0585368
0.0105012
0.00830427
0.00613636
0.00388267
0.00155924
-0.00083539
-0.00332104
-0.00584586
-0.00846263
-0.0111269
-0.0138287
-0.016585
-0.0193728
-0.0221532
-0.024946
-0.0277403
-0.0304852
-0.0331809
-0.0358232
-0.038393
-0.0408545
-0.0431921
-0.0454118
-0.0474882
-0.0494139
-0.0511443
-0.0527014
-0.0540743
-0.0552479
-0.0562225
-0.0569736
-0.0575217
-0.0578634
-0.0579959
-0.0579239
-0.0576463
-0.0571746
-0.0565132
-0.0556612
-0.0547388
0.0101889
0.00809413
0.00602498
0.00387519
0.00165914
-0.000624061
-0.00299172
-0.005397
-0.00788679
-0.0104204
-0.0129886
-0.0156059
-0.0182509
-0.0208879
-0.0235341
-0.0261789
-0.0287754
-0.0313235
-0.0338183
-0.0362421
-0.0385616
-0.0407621
-0.0428485
-0.0447972
-0.0466009
-0.0482188
-0.0496705
-0.0509455
-0.0520303
-0.0529246
-0.0536062
-0.0540934
-0.0543836
-0.0544735
-0.0543682
-0.0540666
-0.0535794
-0.052911
-0.0520601
-0.0511399
0.00989529
0.00789806
0.00592339
0.00387287
0.00175939
-0.000417382
-0.00267268
-0.00496395
-0.00733291
-0.00974237
-0.0121835
-0.0146689
-0.0171785
-0.0196794
-0.0221867
-0.0246899
-0.0271461
-0.0295544
-0.0319099
-0.0341955
-0.0363806
-0.0384516
-0.040412
-0.04224
-0.0439283
-0.0454399
-0.0467918
-0.0479747
-0.0489753
-0.0497939
-0.0504099
-0.05084
-0.0510813
-0.0511317
-0.0509954
-0.0506717
-0.0501708
-0.0494964
-0.0486479
-0.0477308
0.00961894
0.00771496
0.0058307
0.00387505
0.00185962
-0.000215596
-0.0023637
-0.00454623
-0.00680017
-0.0090915
-0.0114119
-0.013772
-0.016153
-0.0185248
-0.0209005
-0.0232696
-0.0255929
-0.0278689
-0.0300924
-0.0322474
-0.0343057
-0.0362539
-0.0380952
-0.0398091
-0.0413885
-0.0427995
-0.0440574
-0.0451529
-0.0460745
-0.0468216
-0.0473758
-0.047752
-0.0479479
-0.0479611
-0.0477962
-0.0474526
-0.0469394
-0.0462609
-0.0454157
-0.0445032
0.00935863
0.00754379
0.00574606
0.00388115
0.00195936
-1.8742e-05
-0.00206466
-0.00414342
-0.0062878
-0.00846667
-0.0106721
-0.0129132
-0.0151722
-0.0174215
-0.0196722
-0.0219144
-0.0241117
-0.0262624
-0.0283611
-0.0303926
-0.0323306
-0.034163
-0.0358916
-0.0374977
-0.0389742
-0.0402903
-0.0414591
-0.0424726
-0.0433193
-0.0439992
-0.0444955
-0.0448213
-0.0449744
-0.0449535
-0.0447622
-0.0444006
-0.0438772
-0.0431956
-0.0423554
-0.0414486
0.00911323
0.00738363
0.00566874
0.00389056
0.00205836
0.000172985
-0.00177539
-0.00375508
-0.00579507
-0.00786687
-0.00996293
-0.0120908
-0.0142339
-0.0163669
-0.0184992
-0.0206209
-0.0226989
-0.0247309
-0.0267113
-0.0286259
-0.0304503
-0.032173
-0.0337952
-0.0352993
-0.0366787
-0.0379051
-0.0389902
-0.0399259
-0.0407026
-0.0413193
-0.041761
-0.0420394
-0.0421533
-0.0421005
-0.0418853
-0.0415077
-0.0409755
-0.040293
-0.0394586
-0.0385593
0.00888168
0.00723359
0.005598
0.00390279
0.00215624
0.000359532
-0.00149574
-0.00338084
-0.00532133
-0.00729112
-0.00928304
-0.0113033
-0.0133363
-0.0153588
-0.0173785
-0.0193861
-0.0213509
-0.0232704
-0.0251389
-0.0269429
-0.0286597
-0.0302788
-0.0318003
-0.0332082
-0.0344959
-0.0356377
-0.0366436
-0.0375066
-0.0382169
-0.0387743
-0.039165
-0.0393995
-0.0394763
-0.0393946
-0.0391577
-0.038766
-0.0382271
-0.0375445
-0.036718
-0.0358275
0.00866303
0.00709287
0.00553322
0.00391737
0.00225273
0.000540804
-0.00122557
-0.00302033
-0.00486595
-0.00673855
-0.00863127
-0.0105491
-0.0124775
-0.0143948
-0.0163079
-0.0182072
-0.0200647
-0.0218776
-0.02364
-0.0253391
-0.0269545
-0.0284753
-0.0299018
-0.0312187
-0.03242
-0.0334819
-0.0344134
-0.0352075
-0.0358559
-0.0363576
-0.0367004
-0.0368939
-0.0369371
-0.0368284
-0.036572
-0.0361683
-0.0356241
-0.0349436
-0.0341256
-0.0332458
0.00845637
0.00696075
0.00547383
0.00393385
0.00234759
0.000716727
-0.000964754
-0.00267321
-0.00442837
-0.00620833
-0.00800653
-0.00982694
-0.0116558
-0.0134733
-0.0152848
-0.0170815
-0.0188373
-0.0205489
-0.0222109
-0.023811
-0.02533
-0.0267582
-0.0280948
-0.0293259
-0.0304456
-0.0314322
-0.0322935
-0.0330232
-0.033613
-0.0340626
-0.0343609
-0.0345164
-0.0345279
-0.0343953
-0.0341214
-0.0337074
-0.0331598
-0.0324821
-0.0316746
-0.0308067
0.00826089
0.00683659
0.00541924
0.00395191
0.00244059
0.000887253
-0.000713148
-0.00233917
-0.00400804
-0.00569966
-0.00740778
-0.00913543
-0.0108696
-0.0125922
-0.0143074
-0.0160066
-0.0176658
-0.0192817
-0.0208484
-0.0223547
-0.0237827
-0.025123
-0.0263748
-0.027525
-0.0285677
-0.0294833
-0.0302786
-0.0309474
-0.0314826
-0.0318835
-0.0321401
-0.0322602
-0.0322432
-0.0320882
-0.031799
-0.0313765
-0.0308267
-0.0301539
-0.0293572
-0.0285028
0.00807583
0.00671969
0.00536902
0.00397114
0.00253154
0.00105235
-0.000470609
-0.00201787
-0.00360443
-0.00521182
-0.00683406
-0.0084734
-0.0101176
-0.0117499
-0.0133736
-0.0149803
-0.0165479
-0.0180727
-0.0195493
-0.0209668
-0.0223086
-0.023566
-0.0247376
-0.0258113
-0.0267815
-0.0276302
-0.0283632
-0.0289752
-0.029459
-0.0298143
-0.0300322
-0.0301197
-0.0300761
-0.0299013
-0.0295985
-0.029169
-0.0286187
-0.0279513
-0.0271673
-0.0263271
0.00790047
0.00660953
0.00532266
0.00399125
0.00262027
0.00121198
-0.000236994
-0.001709
-0.00321702
-0.00474409
-0.00628448
-0.00783974
-0.00939832
-0.0109447
-0.0124815
-0.0140003
-0.0154809
-0.0169196
-0.0183107
-0.0196441
-0.0209045
-0.0220834
-0.0231792
-0.0241808
-0.0250826
-0.0258683
-0.0265429
-0.0271011
-0.027537
-0.0278499
-0.0280316
-0.0280889
-0.0280213
-0.0278283
-0.0275137
-0.0270787
-0.0265289
-0.0258686
-0.0250972
-0.0242724
0.00773413
0.00650552
0.00527975
0.00401195
0.00270661
0.00136614
-1.21689e-05
-0.00141226
-0.00284535
-0.00429582
-0.0057582
-0.00723338
-0.00871049
-0.0101752
-0.0116293
-0.0130648
-0.0144628
-0.0158197
-0.01713
-0.0183838
-0.019567
-0.0206717
-0.0216959
-0.0226294
-0.0234668
-0.0241932
-0.0248127
-0.0253209
-0.0257117
-0.0259848
-0.0261332
-0.0261626
-0.0260726
-0.0258637
-0.0255387
-0.0250995
-0.0245515
-0.0238984
-0.023141
-0.0223319
0.0075762
0.0064072
0.0052399
0.00403294
0.00279042
0.00151479
0.000203996
-0.00112738
-0.00248897
-0.0038664
-0.0052544
-0.00665334
-0.00805293
-0.00943993
-0.0108155
-0.0121717
-0.0134915
-0.0147708
-0.0160043
-0.0171829
-0.0182932
-0.0193276
-0.0202843
-0.0211535
-0.0219301
-0.0226007
-0.0231687
-0.0236295
-0.0239784
-0.0242146
-0.0243318
-0.0243353
-0.0242253
-0.0240017
-0.0236679
-0.0232257
-0.0226801
-0.0220354
-0.0212916
-0.0204989
0.00742614
0.00631407
0.00520275
0.00405399
0.00287154
0.00165794
0.000411633
-0.000854095
-0.00214745
-0.00345522
-0.00477232
-0.00609864
-0.00742447
-0.00873757
-0.0100383
-0.0113195
-0.0125649
-0.0137706
-0.0149315
-0.0160388
-0.0170799
-0.0180481
-0.0189409
-0.0197495
-0.020469
-0.021087
-0.0216064
-0.0220233
-0.0223326
-0.0225343
-0.0226228
-0.0226026
-0.0224739
-0.0222374
-0.0218959
-0.0214516
-0.0209094
-0.020273
-0.0195436
-0.0187667
0.00728336
0.00622574
0.00516796
0.00407486
0.00294988
0.00179558
0.000610872
-0.000592132
-0.00182039
-0.00306171
-0.00431122
-0.00556839
-0.00682404
-0.00806674
-0.00929655
-0.0105063
-0.0116811
-0.0128172
-0.0139092
-0.0149489
-0.0159249
-0.0168302
-0.0176628
-0.0184143
-0.0190799
-0.0196484
-0.0201223
-0.0204976
-0.0207703
-0.02094
-0.0210015
-0.0209594
-0.020814
-0.0205657
-0.0202177
-0.0197721
-0.0192335
-0.0186062
-0.0178904
-0.0171294
0.0071474
0.00614177
0.00513522
0.00409538
0.00302533
0.00192771
0.000801846
-0.000341241
-0.00150738
-0.00268533
-0.0038704
-0.0050617
-0.00625055
-0.00742637
-0.00858864
-0.00973061
-0.0108385
-0.0119084
-0.0129353
-0.0139111
-0.0148252
-0.0156713
-0.0164471
-0.0171446
-0.0177595
-0.0182815
-0.0187125
-0.0190492
-0.0192874
-0.0194271
-0.0194639
-0.0194016
-0.0192406
-0.018982
-0.0186284
-0.0181821
-0.0176477
-0.0170289
-0.0163271
-0.0155811
0.00701776
0.00606181
0.00510428
0.00411532
0.00309781
0.00205437
0.000984688
-0.000101172
-0.00120804
-0.00232556
-0.00344922
-0.00457778
-0.00570307
-0.0068152
-0.00791341
-0.00899102
-0.0100354
-0.0110426
-0.0120076
-0.012923
-0.0137787
-0.0145688
-0.0152909
-0.0159376
-0.0165048
-0.016983
-0.0173738
-0.017674
-0.0178803
-0.0179922
-0.0180058
-0.0179248
-0.01775
-0.0174818
-0.0171235
-0.016677
-0.0161468
-0.015537
-0.014848
-0.0141165
0.006894
0.00598551
0.00507484
0.00413454
0.00316724
0.00217557
0.00115953
0.000128317
-0.000922029
-0.00198193
-0.00304703
-0.00411584
-0.00518064
-0.00623227
-0.00726951
-0.00828609
-0.00927023
-0.0102179
-0.0111244
-0.0119826
-0.012783
-0.0135202
-0.0141916
-0.0147905
-0.0153127
-0.0157497
-0.0161028
-0.0163691
-0.0165453
-0.0166312
-0.0166236
-0.0165255
-0.0163376
-0.0160612
-0.0156987
-0.0152525
-0.0147268
-0.0141252
-0.0134489
-0.0127308
0.0067757
0.00591253
0.00504667
0.00415286
0.00323354
0.00229133
0.0013265
0.000347465
-0.00064897
-0.00165394
-0.00266324
-0.00367517
-0.00468243
-0.00567645
-0.00665586
-0.00761445
-0.0085414
-0.00943277
-0.0102838
-0.0110877
-0.0118361
-0.0125233
-0.0131469
-0.0137006
-0.0141805
-0.0145788
-0.0148966
-0.0151309
-0.0152793
-0.0153411
-0.0153135
-0.0151996
-0.0150003
-0.014716
-0.01435
-0.0139044
-0.013383
-0.0127897
-0.012125
-0.0114195
0.00666246
0.00584256
0.00501953
0.00417014
0.00329665
0.00240169
0.00148574
0.000556503
-0.000388523
-0.00134114
-0.00229727
-0.00325505
-0.00420757
-0.00514689
-0.00607125
-0.00697485
-0.00784757
-0.00868545
-0.00948403
-0.0102368
-0.0109357
-0.0115758
-0.0121543
-0.0126655
-0.0131057
-0.0134676
-0.0137522
-0.0139569
-0.014079
-0.0141183
-0.0140725
-0.0139441
-0.0137338
-0.013443
-0.0130739
-0.012629
-0.0121121
-0.0115263
-0.0108728
-0.0101788
0.00655393
0.00577531
0.0049932
0.00418624
0.00335653
0.00250667
0.00163736
0.000755655
-0.00014036
-0.00104308
-0.00194858
-0.00285482
-0.0037553
-0.00464254
-0.00551472
-0.00636608
-0.00718734
-0.00797464
-0.00872348
-0.00942781
-0.0100802
-0.0106756
-0.0112117
-0.0116829
-0.0120856
-0.0124135
-0.012667
-0.0128437
-0.0129416
-0.0129601
-0.0128972
-0.0127553
-0.0125355
-0.0122383
-0.0118668
-0.0114229
-0.0109101
-0.0103319
-0.00968858
-0.00900535
0.00644974
0.00571051
0.00496749
0.00420104
0.00341313
0.00260633
0.00178151
0.000945141
9.58388e-05
-0.000759349
-0.00161662
-0.00247384
-0.00332483
-0.00416263
-0.00498515
-0.00578702
-0.00655951
-0.00729879
-0.00800066
-0.00865923
-0.00926749
-0.00982096
-0.010317
-0.0107505
-0.0111181
-0.0114139
-0.0116382
-0.0117891
-0.0118641
-0.0118633
-0.0117848
-0.0116307
-0.0114017
-0.0110993
-0.0107256
-0.0102829
-0.00977436
-0.00920299
-0.00856966
-0.00789632
0.00634957
0.00564791
0.0049422
0.00421441
0.00346641
0.0027007
0.0019183
0.00112518
0.000320381
-0.000489534
-0.0013009
-0.00211147
-0.00291543
-0.0037062
-0.00448168
-0.00523656
-0.00596281
-0.00665671
-0.00731403
-0.00792931
-0.00849609
-0.00900984
-0.00946814
-0.00986621
-0.0102008
-0.0104666
-0.0106638
-0.0107902
-0.0108443
-0.0108255
-0.0107324