/*--------------------------------*- C++ -*----------------------------------*\
| =========                 |                                                 |
| \\      /  F ield         | OpenFOAM: The Open Source CFD Toolbox           |
|  \\    /   O peration     | Version:  3.0.1                                 |
|   \\  /    A nd           | Web:      www.OpenFOAM.org                      |
|    \\/     M anipulation  |                                                 |
\*---------------------------------------------------------------------------*/
FoamFile
{
    version     2.0;
    format      ascii;
    class       surfaceScalarField;
    location    "500";
    object      phi;
}
// * * * * * * * * * * * * * * * * * * * * * * * * * * * * * * * * * * * * * //

dimensions      [0 3 -1 0 0 0 0];

internalField   nonuniform List<scalar> 
115520
(
0.0145211
-0.00174569
-0.0127754
0.0154755
-0.00095432
0.0154305
4.49877e-05
0.014864
0.000566508
0.014052
0.000811993
0.0131601
0.000891913
0.0123793
0.00078079
0.0116616
0.000717684
0.0111166
0.000544969
0.0107411
0.000375538
0.0104826
0.000258521
0.010351
0.000131558
0.0103467
4.35115e-06
0.0104082
-6.15318e-05
0.010514
-0.000105786
0.010664
-0.000150005
0.0108442
-0.0001802
0.0110343
-0.000190096
0.0112247
-0.000190353
0.0114159
-0.000191242
0.0116111
-0.000195188
0.0117999
-0.000188751
0.011978
-0.000178145
0.0121426
-0.000164521
0.0123032
-0.000160642
0.0124549
-0.000151662
0.012595
-0.000140097
0.0127219
-0.000126944
0.0128343
-0.000112403
0.0129399
-0.000105557
0.0130342
-9.43007e-05
0.0131161
-8.1881e-05
0.013185
-6.89379e-05
0.0132406
-5.55847e-05
0.0132725
-3.18259e-05
0.0132525
1.99522e-05
0.0132063
4.61902e-05
0.0131621
4.42284e-05
0.0131495
1.26115e-05
-4.14674e-05
0.013191
0.00956573
-0.00286157
-0.00844985
0.010567
-0.00195556
0.0115183
-0.00090632
0.0123639
-0.000279111
0.0130369
0.000138964
0.0135044
0.000424434
0.0138093
0.000475888
0.0139474
0.000579588
0.0140012
0.000491225
0.0140021
0.000374645
0.0139465
0.000314093
0.0138849
0.000193186
0.0138587
3.04978e-05
0.0138376
-4.03514e-05
0.0138297
-9.78794e-05
0.0138669
-0.000187202
0.013933
-0.000246309
0.0140116
-0.000268687
0.0141004
-0.000279142
0.0142099
-0.000300806
0.0143364
-0.000321643
0.0144639
-0.000316273
0.0145901
-0.000304372
0.0147125
-0.000286863
0.0148455
-0.000293679
0.014973
-0.000279153
0.0150927
-0.000259807
0.0152033
-0.000237508
0.0153034
-0.000212476
0.0154038
-0.000205974
0.0154933
-0.000183849
0.0155711
-0.000159644
0.0156362
-0.000134017
0.0156876
-0.000106955
0.0157288
-7.30091e-05
0.0157551
-6.38599e-06
0.0157708
3.04957e-05
0.0157821
3.2967e-05
0.0157955
-8.20841e-07
-7.16195e-05
0.0158257
0.00894129
-0.00389562
-0.00790725
0.00986869
-0.00288295
0.0107129
-0.00175058
0.0114348
-0.00100097
0.0120776
-0.00050385
0.0126431
-0.00014101
0.0131058
1.31712e-05
0.01349
0.000195375
0.0137852
0.000195997
0.0140111
0.000148762
0.014176
0.000149177
0.0143014
6.78439e-05
0.0144151
-8.31965e-05
0.0145107
-0.00013595
0.0145983
-0.000185501
0.0147048
-0.000293657
0.0148233
-0.000364801
0.0149451
-0.000390479
0.0150706
-0.000404656
0.0152091
-0.000439319
0.0153575
-0.000470033
0.0155043
-0.000463136
0.0156486
-0.000448624
0.0157887
-0.000426943
0.0159349
-0.000439883
0.0160742
-0.000418426
0.0162051
-0.000390779
0.0163271
-0.00035945
0.0164391
-0.000324501
0.0165482
-0.000315071
0.0166456
-0.000281279
0.0167309
-0.000244853
0.0168033
-0.000206495
0.0168624
-0.000166048
0.0169103
-0.000120871
0.0169436
-3.96461e-05
0.0169631
1.09987e-05
0.0169732
2.28407e-05
0.0169754
-3.01842e-06
-6.59208e-05
0.0169697
0.00813531
-0.00478225
-0.00724868
0.00899785
-0.0037455
0.00983755
-0.00259028
0.0106009
-0.00176432
0.0112946
-0.00119757
0.0119176
-0.000763946
0.0124581
-0.000527343
0.0129415
-0.000288084
0.0133551
-0.000217545
0.0137103
-0.000206511
0.014014
-0.000154432
0.0142732
-0.000191379
0.0145037
-0.00031371
0.0147061
-0.000338386
0.0148865
-0.000365835
0.0150634
-0.00047059
0.0152371
-0.000538497
0.0154045
-0.00055787
0.0155678
-0.000567919
0.0157356
-0.000607137
0.0159071
-0.000641562
0.0160744
-0.000630435
0.016237
-0.00061119
0.016394
-0.000583941
0.0165541
-0.00059999
0.0167066
-0.000570987
0.0168503
-0.000534462
0.0169845
-0.000493565
0.0171083
-0.000448311
0.0172279
-0.00043473
0.0173358
-0.000389111
0.0174311
-0.00034024
0.0175136
-0.000288933
0.0175826
-0.00023504
0.0176408
-0.000179103
0.017686
-8.4866e-05
0.0177173
-2.02687e-05
0.0177363
3.87606e-06
0.017744
-1.07472e-05
-6.22396e-05
0.0177403
0.00770758
-0.00560094
-0.00688889
0.00852124
-0.00455916
0.00933744
-0.00340648
0.010111
-0.00253784
0.0108404
-0.00192703
0.0115164
-0.00143991
0.0121168
-0.00112776
0.0126697
-0.000840975
0.013156
-0.000703874
0.0135862
-0.000636669
0.0139696
-0.000537824
0.0143075
-0.000529253
0.0146093
-0.000615517
0.0148806
-0.000609743
0.0151257
-0.000610872
0.0153568
-0.0007017
0.0155767
-0.000758378
0.0157847
-0.000765947
0.0159834
-0.000766626
0.0161802
-0.000803886
0.0163754
-0.000836788
0.0165637
-0.00081871
0.016745
-0.000792471
0.016919
-0.000757914
0.0170927
-0.000773773
0.0172578
-0.000736093
0.0174132
-0.000689782
0.0175582
-0.000638562
0.0176923
-0.000582429
0.0178204
-0.000562843
0.0179361
-0.000504846
0.0180389
-0.000443019
0.0181284
-0.000378375
0.0182041
-0.000310799
0.0182684
-0.000243399
0.0183195
-0.000135971
0.0183561
-5.6873e-05
0.0183787
-1.86419e-05
0.0183871
-1.92152e-05
-5.61431e-05
0.018381
0.00739607
-0.0063772
-0.00661982
0.0081759
-0.00533898
0.0089674
-0.00419798
0.00973651
-0.00330696
0.0104818
-0.00267231
0.0111925
-0.00215061
0.0118417
-0.00177698
0.012454
-0.00145322
0.013005
-0.00125493
0.0135025
-0.0011341
0.0139561
-0.000991491
0.0143632
-0.000936277
0.0147288
-0.000981124
0.0150616
-0.000942608
0.0153647
-0.000913964
0.0156458
-0.000982831
0.0159094
-0.00102188
0.0161564
-0.00101302
0.0163895
-0.000999738
0.0166149
-0.00102923
0.0168339
-0.00105579
0.0170432
-0.00102798
0.017243
-0.000992339
0.0174335
-0.000948425
0.0176208
-0.000961039
0.0177981
-0.000913373
0.0179645
-0.000856212
0.0181197
-0.000793715
0.0182631
-0.000725847
0.018399
-0.000698754
0.0185219
-0.000627755
0.0186313
-0.000552399
0.0187268
-0.000473873
0.0188081
-0.000392102
0.0188772
-0.000312512
0.0189327
-0.000191416
0.018973
-9.72519e-05
0.0189983
-4.39361e-05
0.0190084
-2.92804e-05
-5.0617e-05
0.0190029
0.00718343
-0.00713152
-0.00642911
0.00794346
-0.00609901
0.00871694
-0.00497147
0.00947775
-0.00406777
0.0102263
-0.00342085
0.010954
-0.00287831
0.0116341
-0.00245713
0.0122885
-0.00210761
0.0128902
-0.00185657
0.0134434
-0.00168733
0.0139574
-0.00150553
0.0144258
-0.00140464
0.0148498
-0.00140512
0.0152399
-0.00133277
0.0155981
-0.00127211
0.0159281
-0.00131281
0.0162353
-0.00132908
0.0165222
-0.00129992
0.0167911
-0.00126867
0.017047
-0.00128511
0.0172919
-0.00130074
0.0175243
-0.00126032
0.0177446
-0.00121269
0.0179533
-0.00115713
0.0181556
-0.00116327
0.0183462
-0.00110404
0.0185247
-0.0010347
0.0186907
-0.000959727
0.018844
-0.000879052
0.018988
-0.000842773
0.0191182
-0.000757946
0.0192341
-0.000668301
0.0193354
-0.000575172
0.0194218
-0.000478516
0.0194951
-0.000385782
0.0195539
-0.000250255
0.0195969
-0.000140289
0.019624
-7.0958e-05
0.0196347
-4.00188e-05
-4.47303e-05
0.0196288
0.00703538
-0.0078768
-0.00629009
0.00778662
-0.00685025
0.00855051
-0.00573536
0.00930617
-0.00482343
0.0100553
-0.00416995
0.0107917
-0.00361471
0.0114913
-0.00315679
0.012174
-0.00279032
0.0128129
-0.00249544
0.0134099
-0.00228436
0.0139734
-0.00206898
0.0144942
-0.00192548
0.0149704
-0.00188131
0.0154132
-0.00177551
0.0158231
-0.00168204
0.0162006
-0.00169026
0.0165514
-0.00167989
0.0168789
-0.00162741
0.017185
-0.00157485
0.0174735
-0.00157354
0.0177467
-0.00157393
0.0180044
-0.00151809
0.0182476
-0.00145583
0.0184766
-0.0013862
0.0186959
-0.0013825
0.0189017
-0.00130991
0.0190939
-0.00122684
0.0192721
-0.00113798
0.0194363
-0.0010432
0.0195894
-0.000995924
0.0197278
-0.000896271
0.0198509
-0.000791404
0.0199585
-0.00068278
0.0200503
-0.000570374
0.020128
-0.000463424
0.0201903
-0.000312576
0.020236
-0.000185993
0.0202648
-9.9759e-05
0.0202764
-5.16293e-05
-3.88659e-05
0.0202706
0.00693484
-0.00862209
-0.00618955
0.00768555
-0.00760095
0.00844729
-0.0064971
0.00920272
-0.00557887
0.00995409
-0.00492131
0.0106971
-0.00435771
0.0114108
-0.00387052
0.0121135
-0.00349296
0.0127799
-0.00316189
0.0134108
-0.00291527
0.0140136
-0.00267177
0.0145779
-0.0024898
0.0150993
-0.00240263
0.0155887
-0.00226493
0.0160458
-0.00213918
0.0164681
-0.00211249
0.0168611
-0.00207297
0.0172288
-0.00199508
0.0175726
-0.00191867
0.0178948
-0.00189569
0.0181979
-0.00187707
0.018483
-0.00180318
0.0187509
-0.00172376
0.0190024
-0.00163766
0.0192406
-0.00162076
0.0194636
-0.00153288
0.0196712
-0.00143439
0.0198633
-0.00133008
0.0200398
-0.00121974
0.0202034
-0.00115949
0.0203509
-0.00104385
0.0204822
-0.000922673
0.0205969
-0.000797511
0.0206949
-0.000668347
0.0207775
-0.000545983
0.0208437
-0.000378809
0.0208924
-0.000234701
0.0209233
-0.00013062
0.020936
-6.43525e-05
-3.32058e-05
0.0209303
0.00687035
-0.00937393
-0.00611852
0.00762678
-0.00835738
0.00839247
-0.00726278
0.00915258
-0.00633898
0.00990947
-0.0056782
0.0106601
-0.00510831
0.0113864
-0.0045968
0.012105
-0.0042116
0.0127933
-0.00385022
0.0134514
-0.0035733
0.0140859
-0.00330628
0.0146861
-0.00309007
0.015246
-0.00296253
0.0157762
-0.00279507
0.0162754
-0.0026384
0.0167388
-0.00257589
0.0171717
-0.0025059
0.017578
-0.00240135
0.0179587
-0.00229936
0.0183147
-0.00225169
0.0186485
-0.00221091
0.018962
-0.00211669
0.0192561
-0.00201782
0.0195314
-0.00191298
0.0197904
-0.0018797
0.0200321
-0.00177458
0.0202566
-0.00165891
0.020464
-0.00153748
0.0206543
-0.00141003
0.0208296
-0.00133476
0.0209875
-0.00120184
0.021128
-0.00106314
0.0212508
-0.000920277
0.0213557
-0.00077323
0.0214438
-0.000634158
0.0215146
-0.000449557
0.0215668
-0.000286932
0.0216002
-0.000163997
0.0216144
-7.85914e-05
-2.80895e-05
0.0216093
0.00683427
-0.0101373
-0.00607092
0.0076013
-0.00912442
0.00837589
-0.00803737
0.00914505
-0.00710813
0.00991101
-0.00644416
0.0106715
-0.00586879
0.0114109
-0.00533618
0.0121444
-0.00494513
0.0128519
-0.00455769
0.013533
-0.00425449
0.0141942
-0.00396745
0.0148249
-0.00372073
0.0154181
-0.00355575
0.0159838
-0.00336076
0.0165202
-0.00317488
0.0170211
-0.0030767
0.017491
-0.0029758
0.0179336
-0.00284403
0.0183497
-0.00271541
0.0187388
-0.00264083
0.0191033
-0.00257543
0.0194456
-0.00245898
0.0197665
-0.00233866
0.0200666
-0.00221307
0.0203473
-0.00216044
0.0206089
-0.00203622
0.0208516
-0.00190161
0.0210756
-0.0017614
0.0212808
-0.00161522
0.0214689
-0.00152286
0.0216383
-0.00137129
0.0217889
-0.00121377
0.0219206
-0.00105195
0.0220332
-0.000885803
0.0221277
-0.000728651
0.0222035
-0.000525441
0.0222598
-0.000343228
0.0222962
-0.000200363
0.0223124
-9.47532e-05
-2.38551e-05
0.0223081
0.00682127
-0.0109161
-0.00604247
0.00760286
-0.00990601
0.00839043
-0.00882494
0.00917241
-0.00789011
0.00995081
-0.00722256
0.0107238
-0.0066418
0.0114778
-0.00609018
0.0122267
-0.005694
0.0129525
-0.00528346
0.0136549
-0.00495689
0.0143397
-0.00465232
0.0149972
-0.00437815
0.0156199
-0.00417849
0.0162171
-0.00395797
0.0167868
-0.00374462
0.0173217
-0.00361152
0.0178257
-0.00347985
0.0183024
-0.00332073
0.0187519
-0.00316493
0.019173
-0.00306192
0.0195676
-0.00297003
0.0199385
-0.00282983
0.0202862
-0.00268638
0.0206114
-0.00253826
0.0209146
-0.00246369
0.021197
-0.00231858
0.0214587
-0.00216336
0.0217001
-0.00200271
0.021921
-0.0018362
0.0221229
-0.00172471
0.0223047
-0.00155307
0.0224663
-0.00137536
0.0226076
-0.00119327
0.0227285
-0.00100675
0.02283
-0.000830094
0.0229116
-0.000607025
0.0229724
-0.000404088
0.0230122
-0.000240155
0.0230307
-0.000113215
-2.08112e-05
0.0230276
0.00682757
-0.0117136
-0.00603007
0.007627
-0.0107054
0.00843097
-0.00962891
0.00922905
-0.00868819
0.010023
-0.00801649
0.0108112
-0.00743006
0.0115818
-0.00686075
0.0123473
-0.00645947
0.0130917
-0.00602786
0.0138147
-0.00567996
0.0145219
-0.00535947
0.0152039
-0.00506019
0.0158537
-0.00482824
0.0164796
-0.00458386
0.0170795
-0.00434459
0.0176456
-0.00417759
0.0181813
-0.00401557
0.0186899
-0.00382925
0.019171
-0.00364605
0.0196227
-0.0035136
0.0200465
-0.00339384
0.0204453
-0.00322867
0.0208196
-0.0030607
0.0211699
-0.00288854
0.021496
-0.00278974
0.0217995
-0.00262212
0.0220808
-0.00244468
0.0223401
-0.00226201
0.0225775
-0.00207362
0.0227938
-0.001941
0.0229886
-0.00174786
0.0231618
-0.00154859
0.0233134
-0.00134487
0.0234433
-0.00113665
0.0235523
-0.000939016
0.02364
-0.00069479
0.0237059
-0.000469934
0.0237495
-0.000283743
0.0237705
-0.000134293
-1.92171e-05
0.0237689
0.0068504
-0.0125326
-0.00603141
0.00767048
-0.0115255
0.00849381
-0.0104522
0.00931086
-0.00950524
0.0101231
-0.00882871
0.0109292
-0.00823613
0.0117184
-0.00764995
0.0125021
-0.00724321
0.0132661
-0.00679185
0.0140101
-0.00642398
0.0147392
-0.00608853
0.0154448
-0.00576586
0.0161202
-0.00550357
0.0167729
-0.0052366
0.017401
-0.00497267
0.0179962
-0.00477284
0.0185617
-0.00458101
0.0191002
-0.00436773
0.0196112
-0.00415707
0.0200921
-0.00399456
0.0205442
-0.00384593
0.0209704
-0.0036548
0.0213708
-0.00346115
0.0217459
-0.00326365
0.0220948
-0.00313865
0.0224197
-0.00294701
0.0227209
-0.00274588
0.0229986
-0.00253967
0.0232528
-0.00232788
0.0234841
-0.00217225
0.0236924
-0.00195618
0.0238778
-0.00173393
0.0240401
-0.0015072
0.0241794
-0.00127592
0.0242962
-0.00105584
0.0243905
-0.000789122
0.0244617
-0.000541107
0.0245094
-0.000331422
0.0245333
-0.000158234
-1.92688e-05
0.0245334
0.0068877
-0.0133755
-0.00604475
0.00773093
-0.0123687
0.00857622
-0.0112975
0.0094148
-0.0103438
0.0102479
-0.00966177
0.0110742
-0.00906243
0.0118841
-0.00845985
0.0126879
-0.00804704
0.0134728
-0.00757676
0.0142386
-0.00718977
0.0149899
-0.00683985
0.015719
-0.00649495
0.0164193
-0.00620384
0.0170978
-0.00591517
0.0177527
-0.00562751
0.0183757
-0.00539583
0.0189694
-0.00517473
0.0195364
-0.00493473
0.0200759
-0.00469664
0.0205851
-0.00450366
0.0210645
-0.0043254
0.0215172
-0.0041075
0.0219433
-0.0038872
0.0223428
-0.00366321
0.0227145
-0.00351033
0.0230608
-0.0032933
0.023382
-0.00306706
0.0236782
-0.00283589
0.0239496
-0.00259926
0.0241962
-0.00241882
0.0244184
-0.00217838
0.0246162
-0.00193177
0.0247896
-0.00168063
0.0249386
-0.00142493
0.0250637
-0.0011809
0.0251649
-0.00089032
0.0252416
-0.000617867
0.0252936
-0.00038341
0.0253206
-0.000185215
-2.11008e-05
0.0253225
0.00693791
-0.0142447
-0.00606877
0.00780657
-0.0132374
0.00867618
-0.0121671
0.00953863
-0.0112063
0.0103948
-0.010518
0.0112436
-0.00991121
0.0120762
-0.00929248
0.012902
-0.00887284
0.0137094
-0.0083841
0.0144981
-0.00797846
0.0152724
-0.00761417
0.0160253
-0.00724781
0.0167504
-0.00692901
0.0174544
-0.00661919
0.0181354
-0.00630842
0.0187852
-0.00604571
0.0194063
-0.00579577
0.0200008
-0.00552922
0.0205678
-0.00526371
0.0211042
-0.00504
0.0216103
-0.00483152
0.0220889
-0.00458616
0.0225401
-0.00433832
0.0229637
-0.00408684
0.023358
-0.00390462
0.0237256
-0.00366093
0.0240668
-0.00340827
0.0243817
-0.00315077
0.0246703
-0.0028879
0.0249325
-0.00268095
0.0251688
-0.00241474
0.0253794
-0.00214236
0.0255642
-0.00186543
0.0257232
-0.00158391
0.0258567
-0.00131444
0.025965
-0.000998607
0.0260476
-0.0007004
0.026104
-0.000439859
0.0261341
-0.00021535
-2.47867e-05
0.0261378
0.00699985
-0.0151421
-0.00610242
0.00789604
-0.0141336
0.00879218
-0.0130633
0.00968066
-0.0120948
0.0105622
-0.0113995
0.0114356
-0.0107846
0.0122929
-0.0101498
0.0131425
-0.00972246
0.0139739
-0.00921548
0.0147868
-0.00879139
0.0155852
-0.00841256
0.0163625
-0.00802515
0.017113
-0.00767946
0.0178425
-0.00734874
0.0185493
-0.0070152
0.0192257
-0.00672209
0.0198735
-0.00644362
0.0204949
-0.00615057
0.0210888
-0.0058576
0.0216517
-0.00560293
0.0221839
-0.00536374
0.022688
-0.00509026
0.0231638
-0.0048141
0.0236112
-0.00453421
0.0240279
-0.00432135
0.0244168
-0.00404981
0.024778
-0.00376948
0.0251116
-0.00348435
0.0254176
-0.00319389
0.0256954
-0.00295881
0.0259461
-0.00266544
0.0261697
-0.0023659
0.026366
-0.00206179
0.0265352
-0.00175306
0.0266774
-0.00145665
0.0267929
-0.00111414
0.0268813
-0.00078883
0.0269423
-0.000500859
0.0269757
-0.000248695
-3.03465e-05
0.0269812
0.0070726
-0.0160698
-0.0061449
0.00799834
-0.0150593
0.00892306
-0.013988
0.00983963
-0.0130113
0.0107485
-0.0123084
0.0116486
-0.0116847
0.0125324
-0.0110336
0.0134077
-0.0105978
0.0142648
-0.0100725
0.0151034
-0.00962998
0.0159271
-0.00923625
0.0167299
-0.00882794
0.0175063
-0.00845587
0.0182618
-0.00810426
0.0189946
-0.00774806
0.0196975
-0.00742497
0.020372
-0.00711812
0.02102
-0.00679852
0.0216403
-0.00647793
0.0222294
-0.00619206
0.0227874
-0.00592171
0.0233166
-0.00561948
0.0238168
-0.00531424
0.0242876
-0.00500506
0.0247267
-0.00476041
0.0251367
-0.00445987
0.0255179
-0.00415067
0.0258702
-0.00383664
0.0261936
-0.00351728
0.0264873
-0.00325253
0.0267525
-0.00293063
0.0269891
-0.00260253
0.0271972
-0.00226983
0.0273766
-0.00193248
0.0275276
-0.00160764
0.0276505
-0.00123703
0.0277449
-0.000883233
0.0278105
-0.000566453
0.027847
-0.000285259
-3.77554e-05
0.0278544
0.00715549
-0.0170297
-0.00619561
0.00811271
-0.0160165
0.00906799
-0.0149433
0.0100146
-0.013958
0.0109528
-0.0132466
0.0118815
-0.0126133
0.0127938
-0.0119459
0.0136966
-0.0115006
0.014581
-0.010957
0.0154467
-0.0104957
0.0162971
-0.0100866
0.0171265
-0.00965731
0.0179297
-0.00925914
0.0187119
-0.00888645
0.0194713
-0.00850747
0.020201
-0.00815465
0.0209023
-0.00781942
0.0215769
-0.00747307
0.0222235
-0.00712461
0.0228387
-0.00680727
0.0234223
-0.00650528
0.0239765
-0.00617365
0.0245008
-0.00583858
0.024995
-0.00549925
0.0254563
-0.00522172
0.0258875
-0.00489109
0.0262887
-0.00455184
0.0266597
-0.00420767
0.0270006
-0.00385811
0.0273103
-0.00356222
0.02759
-0.0032104
0.0278399
-0.00285236
0.0280597
-0.00248967
0.0282495
-0.00212229
0.0284094
-0.0017675
0.0285397
-0.00136733
0.0286401
-0.000983641
0.0287103
-0.000636644
0.02875
-0.000325013
-4.69511e-05
0.0287592
0.00724799
-0.0180237
-0.00625404
0.00823858
-0.0170071
0.00922636
-0.0159311
0.010205
-0.0149366
0.0111744
-0.0142161
0.0121336
-0.0135725
0.0130761
-0.0128884
0.0140082
-0.0124327
0.0149217
-0.0118704
0.0158161
-0.0113902
0.0166946
-0.010965
0.0175518
-0.0105145
0.018383
-0.0100903
0.0191927
-0.00969618
0.0199794
-0.00929414
0.0207364
-0.00891166
0.0214649
-0.00854791
0.0221663
-0.00817448
0.0228395
-0.00779779
0.0234808
-0.00744862
0.02409
-0.00711449
0.0246692
-0.00675279
0.0252177
-0.00638711
0.0257352
-0.00601676
0.0262188
-0.00570533
0.0266712
-0.00534349
0.0270924
-0.00497303
0.0274822
-0.0045975
0.0278406
-0.00421646
0.0281663
-0.00388797
0.0284608
-0.00350487
0.0287239
-0.00311549
0.0289557
-0.00272138
0.0291559
-0.00232253
0.0293247
-0.0019363
0.0294625
-0.00150509
0.0295689
-0.00109007
0.0296436
-0.000711408
0.0296865
-0.0003679
-5.78444e-05
0.0296974
0.00734969
-0.0190535
-0.00631981
0.00837554
-0.018033
0.00939771
-0.0169532
0.0104102
-0.015949
0.0114128
-0.0152187
0.0124043
-0.014564
0.0133789
-0.013863
0.0143421
-0.0133958
0.0152862
-0.0128146
0.016211
-0.012315
0.017119
-0.011873
0.0180054
-0.0114009
0.0188657
-0.0109506
0.019704
-0.0105345
0.0205189
-0.010109
0.0213039
-0.00969673
0.0220602
-0.00930418
0.0227889
-0.00890321
0.023489
-0.00849782
0.0241567
-0.00811639
0.0247918
-0.00774957
0.0253961
-0.00735704
0.0259689
-0.00695994
0.0265098
-0.00655766
0.0270158
-0.00621135
0.0274895
-0.0058172
0.0279309
-0.00541436
0.0283396
-0.00500623
0.0287155
-0.00459242
0.0290575
-0.00422992
0.0293668
-0.00381415
0.0296433
-0.00339201
0.029887
-0.00296505
0.0300977
-0.00253328
0.0302755
-0.00211408
0.0304207
-0.00165033
0.0305332
-0.0012025
0.0306125
-0.000790706
0.0306584
-0.000413846
-7.03246e-05
0.0306709
0.00746032
-0.0201212
-0.00639265
0.00852329
-0.019096
0.00958175
-0.0180117
0.01063
-0.0169972
0.0116676
-0.0162563
0.0126934
-0.0155898
0.0137018
-0.0148714
0.0146978
-0.0143919
0.0156744
-0.0137912
0.0166311
-0.0132717
0.0175702
-0.0128121
0.0184872
-0.012318
0.0193779
-0.0118413
0.020246
-0.0114026
0.02109
-0.010953
0.021904
-0.0105107
0.0226888
-0.010089
0.0234455
-0.00965989
0.0241729
-0.00922522
0.0248675
-0.00881101
0.0255288
-0.00841087
0.0261585
-0.00798672
0.0267559
-0.00755732
0.0273204
-0.00712219
0.027849
-0.00673997
0.0283442
-0.0063124
0.0288058
-0.00587599
0.0292336
-0.005434
0.0296273
-0.00498613
0.0299856
-0.00458821
0.0303098
-0.00413836
0.0305998
-0.00368204
0.0308556
-0.00322077
0.0310769
-0.0027546
0.0312637
-0.00230089
0.0314164
-0.00180307
0.0315348
-0.00132092
0.0316186
-0.000874483
0.0316675
-0.00046276
-8.42655e-05
0.0316815
0.00757968
-0.0212286
-0.00647233
0.00868165
-0.0201979
0.0097783
-0.0191083
0.0108641
-0.018083
0.0119386
-0.0173308
0.0130005
-0.0166517
0.0140446
-0.0159154
0.0150753
-0.0154226
0.016086
-0.0148019
0.0170762
-0.0142619
0.0180481
-0.013784
0.0189972
-0.0132671
0.0199196
-0.0127637
0.0208187
-0.0123017
0.021693
-0.0118273
0.022537
-0.0113547
0.0233512
-0.0109032
0.0241366
-0.0104453
0.024892
-0.00998065
0.0256141
-0.00953306
0.0263021
-0.00909889
0.0269576
-0.00864224
0.0275799
-0.00817962
0.0281684
-0.00771064
0.0287199
-0.00729151
0.0292368
-0.00682935
0.029719
-0.00635814
0.030166
-0.00588104
0.0305777
-0.00539777
0.0309525
-0.00496303
0.0312918
-0.00447767
0.0315955
-0.00398571
0.0318633
-0.00348865
0.0320953
-0.00298657
0.0322912
-0.00249678
0.0324514
-0.00196333
0.0325758
-0.00144532
0.032664
-0.000962682
0.0327158
-0.000514544
-9.95289e-05
0.0327311
0.00770765
-0.0223775
-0.00655872
0.00885053
-0.0213408
0.00998728
-0.0202451
0.0111126
-0.0192084
0.0122259
-0.0184441
0.0133258
-0.0177516
0.0144073
-0.016997
0.0154745
-0.0164898
0.0165211
-0.0158485
0.0175465
-0.0152873
0.0185527
-0.0147901
0.0195354
-0.0142499
0.020491
-0.0137192
0.0214224
-0.0132331
0.0223283
-0.0127332
0.0232033
-0.0122297
0.0240479
-0.0117478
0.0248629
-0.0112603
0.0256472
-0.0107649
0.0263974
-0.0102832
0.0271127
-0.00981425
0.0277947
-0.00932417
0.0284424
-0.00882733
0.0290552
-0.00832345
0.02963
-0.00786635
0.0301691
-0.0073684
0.0306721
-0.00686114
0.0311386
-0.0063476
0.0315684
-0.00582758
0.03196
-0.00535459
0.0323146
-0.00483227
0.032632
-0.00430316
0.0329122
-0.00376879
0.0331549
-0.00322927
0.0333599
-0.00270181
0.0335277
-0.00213113
0.0336581
-0.00157566
0.0337506
-0.00105524
0.0338052
-0.000569093
-0.000115969
0.0338216
0.00784417
-0.02357
-0.00665171
0.00902989
-0.0225265
0.0102087
-0.0214239
0.0113755
-0.0203751
0.0125294
-0.019598
0.0136692
-0.0188913
0.01479
-0.0181178
0.0158955
-0.0175953
0.0169798
-0.0169328
0.0180421
-0.0163497
0.0190842
-0.0158322
0.0201022
-0.0152679
0.0210924
-0.0147094
0.0220576
-0.0141983
0.0229963
-0.013672
0.0239036
-0.0131369
0.0247797
-0.0126239
0.0256254
-0.012106
0.0264393
-0.0115789
0.0272185
-0.0110623
0.0279619
-0.0105577
0.0286709
-0.0100331
0.0293446
-0.00950102
0.0299823
-0.00896113
0.0305809
-0.00846497
0.0311424
-0.00792997
0.0316667
-0.00738536
0.0321531
-0.00683403
0.0326014
-0.00627585
0.0330099
-0.00576316
0.03338
-0.00520238
0.0337115
-0.00463461
0.0340041
-0.00406136
0.0342576
-0.0034828
0.0344718
-0.00291605
0.0346472
-0.0023065
0.0347835
-0.00171195
0.0348803
-0.0011521
0.0349376
-0.000626302
-0.000133436
0.034955
0.00798921
-0.0248079
-0.00675124
0.00921976
-0.0237571
0.0104426
-0.0226467
0.0116528
-0.0215853
0.0128493
-0.0207946
0.0140309
-0.0200729
0.0151929
-0.0192798
0.0163386
-0.018741
0.0174623
-0.0180565
0.0185634
-0.0174508
0.0196432
-0.016912
0.020698
-0.0163227
0.0217243
-0.0157357
0.0227247
-0.0151987
0.0236977
-0.014645
0.0246385
-0.0140777
0.0255473
-0.0135327
0.0264247
-0.0129834
0.0272694
-0.0124237
0.0280784
-0.0118713
0.0288507
-0.01133
0.0295875
-0.0107699
0.0302879
-0.0102014
0.0309511
-0.0096243
0.031574
-0.00908791
0.0321586
-0.00851457
0.0327045
-0.00793124
0.0332112
-0.00734072
0.0336782
-0.00674294
0.0341041
-0.00618906
0.03449
-0.00558826
0.0348357
-0.00498025
0.0351408
-0.00436653
0.0354053
-0.0037473
0.0356289
-0.00313959
0.0358119
-0.00248949
0.0359541
-0.00185416
0.0360552
-0.0012532
0.0361149
-0.000686069
-0.000151779
0.0361333
0.00814284
-0.0260935
-0.00685732
0.00942024
-0.0250345
0.0106891
-0.0239156
0.0119447
-0.0228409
0.0131859
-0.0220358
0.0144112
-0.0212982
0.0156163
-0.0204849
0.0168041
-0.0199287
0.0179691
-0.0192216
0.0191107
-0.0185923
0.0202299
-0.0180312
0.0213233
-0.0174161
0.0223874
-0.0167998
0.0234245
-0.0162358
0.0244332
-0.0156537
0.0254089
-0.0150534
0.0263516
-0.0144755
0.0272619
-0.0138937
0.0281385
-0.0133002
0.0289783
-0.0127111
0.0297805
-0.0121322
0.0305459
-0.0115354
0.0312737
-0.0109292
0.031963
-0.0103136
0.0326109
-0.00973581
0.0332191
-0.00912275
0.0337872
-0.00849929
0.0343146
-0.00786811
0.0348009
-0.00722923
0.0352444
-0.00663263
0.0356464
-0.00599023
0.0360065
-0.00534034
0.0363245
-0.00468449
0.0366001
-0.00402292
0.036833
-0.00337254
0.0370237
-0.00268015
0.0371718
-0.00200231
0.0372771
-0.00135849
0.0373393
-0.000748292
-0.000170846
0.0373584
0.00830511
-0.0274286
-0.00696995
0.00963146
-0.0263608
0.0109485
-0.0252326
0.0122515
-0.0241439
0.0135393
-0.0233237
0.0148105
-0.0225693
0.0160607
-0.0217352
0.0172924
-0.0211604
0.0185007
-0.0204299
0.0196846
-0.0197762
0.020845
-0.0191916
0.0219786
-0.0185497
0.0230822
-0.0179034
0.0241576
-0.0173112
0.0252036
-0.0166996
0.0262156
-0.0160654
0.0271936
-0.0154535
0.0281381
-0.0148381
0.0290476
-0.0142098
0.0299194
-0.0135829
0.0307524
-0.0129652
0.0315474
-0.0123304
0.0323035
-0.0116852
0.0330197
-0.0110299
0.0336933
-0.0104094
0.0343257
-0.00975516
0.0349165
-0.00909008
0.0354651
-0.00841673
0.0359711
-0.00773517
0.0364327
-0.00709428
0.0368511
-0.00640862
0.0372259
-0.00571517
0.0375569
-0.00501548
0.0378438
-0.00430983
0.0380863
-0.00361502
0.0382847
-0.00287855
0.0384388
-0.00215641
0.0385483
-0.00146795
0.0386129
-0.000812877
-0.000190487
0.0386325
0.00847616
-0.0288156
-0.00708919
0.00985359
-0.0277383
0.0112209
-0.0265999
0.0125735
-0.0254965
0.0139101
-0.0246602
0.015229
-0.0238883
0.0165263
-0.0230325
0.0178041
-0.0224382
0.0190575
-0.0216833
0.0202856
-0.0210043
0.0214892
-0.0203951
0.0226649
-0.0197255
0.0238096
-0.0190481
0.024925
-0.0184267
0.0260097
-0.0177843
0.0270595
-0.0171152
0.0280743
-0.0164683
0.0290543
-0.015818
0.0299981
-0.0151537
0.030903
-0.0144878
0.0317679
-0.0138301
0.0325934
-0.0131559
0.0333787
-0.0124705
0.0341227
-0.011774
0.0348227
-0.0111094
0.0354801
-0.0104125
0.0360942
-0.00970425
0.0366646
-0.00898713
0.0371907
-0.00826128
0.0376709
-0.00757445
0.0381061
-0.00684382
0.038496
-0.00610507
0.0388403
-0.00535976
0.0391387
-0.00460824
0.0393909
-0.00386717
0.0395971
-0.00308478
0.0397572
-0.0023165
0.0398708
-0.00158153
0.0399376
-0.000879732
-0.00021055
0.0399577
0.00865613
-0.0302566
-0.00721513
0.0100869
-0.029169
0.0115066
-0.0280196
0.012911
-0.0269009
0.0142985
-0.0260477
0.0156674
-0.0252572
0.0170139
-0.024379
0.0183397
-0.023764
0.0196403
-0.0229839
0.0209146
-0.0222786
0.0221631
-0.0216437
0.0233827
-0.0209451
0.0245704
-0.0202357
0.0257275
-0.0195838
0.0268527
-0.0189095
0.0279419
-0.0182044
0.0289949
-0.0175213
0.0300117
-0.0168349
0.0309912
-0.0161331
0.0319304
-0.015427
0.0328283
-0.014728
0.0336855
-0.0140131
0.0345009
-0.0132859
0.0352737
-0.0125468
0.036001
-0.0118366
0.036684
-0.0110955
0.0373222
-0.0103425
0.037915
-0.00957994
0.0384618
-0.00880809
0.038961
-0.00807364
0.0394135
-0.00729625
0.0398188
-0.00651039
0.0401767
-0.00571763
0.0404868
-0.00491838
0.0407488
-0.00412917
0.040963
-0.00329896
0.0411291
-0.00248261
0.0412468
-0.00169922
0.0413158
-0.000948771
-0.000230887
0.0413361
0.00884521
-0.0317539
-0.00734788
0.0103315
-0.0306553
0.011806
-0.0294941
0.0132644
-0.0283592
0.014705
-0.0274883
0.0161261
-0.0266783
0.0175239
-0.0257769
0.0188999
-0.02514
0.0202498
-0.0243337
0.0215722
-0.023601
0.0228677
-0.0229392
0.0241332
-0.0222106
0.0253656
-0.0214681
0.0265662
-0.0207844
0.0277336
-0.0200769
0.0288638
-0.0193346
0.0299565
-0.018614
0.0310117
-0.0178901
0.0320282
-0.0171495
0.033003
-0.0164018
0.0339352
-0.0156602
0.0348252
-0.0149031
0.0356719
-0.0141326
0.0364744
-0.0133492
0.0372298
-0.012592
0.0379393
-0.0118051
0.0386024
-0.0110055
0.0392183
-0.0101958
0.0397864
-0.00937622
0.0403051
-0.00859237
0.0407752
-0.00776638
0.0411964
-0.00693153
0.0415682
-0.00608942
0.0418903
-0.00524051
0.0421623
-0.00440122
0.0423846
-0.0035212
0.0425567
-0.0026548
0.0426785
-0.00182099
0.0427497
-0.00101991
-0.000251348
0.0427701
0.00904361
-0.03331
-0.00748757
0.0105879
-0.0321996
0.0121195
-0.0310257
0.0136341
-0.0298739
0.0151301
-0.0289843
0.0166056
-0.0281538
0.0180571
-0.0272283
0.0194855
-0.0265684
0.0208867
-0.0257349
0.0222594
-0.0249738
0.0236039
-0.0242837
0.0249172
-0.0235238
0.0261962
-0.0227472
0.0274422
-0.0220303
0.0286535
-0.0212882
0.0298264
-0.0205075
0.0309606
-0.0197481
0.0320557
-0.0189853
0.0331106
-0.0182044
0.0341225
-0.0174137
0.0350903
-0.016628
0.0360142
-0.015827
0.0368933
-0.0150117
0.0377265
-0.0141824
0.038511
-0.0133766
0.039248
-0.012542
0.0399366
-0.0116942
0.0405763
-0.0108355
0.0411664
-0.00996631
0.0417053
-0.00913122
0.0421936
-0.00825471
0.042631
-0.00736891
0.0430171
-0.00647547
0.0433514
-0.0055749
0.0436337
-0.00468351
0.0438642
-0.00375164
0.0440425
-0.00283313
0.0441684
-0.00194686
0.0442416
-0.00109309
-0.000271785
0.044262
0.00925158
-0.0349272
-0.00763436
0.0108562
-0.0338042
0.0124473
-0.0326168
0.0140207
-0.0314473
0.0155745
-0.0305381
0.0171068
-0.0296861
0.018614
-0.0287355
0.0200971
-0.0280515
0.0215518
-0.0271897
0.022977
-0.026399
0.0243726
-0.0256793
0.0257357
-0.024887
0.0270635
-0.024075
0.0283567
-0.0233235
0.0296138
-0.0225454
0.0308312
-0.0217249
0.0320084
-0.0209253
0.0331451
-0.020122
0.03424
-0.0192993
0.0352904
-0.0184641
0.0362951
-0.0176327
0.0372543
-0.0167863
0.038167
-0.0159243
0.039032
-0.0150474
0.0398467
-0.0141913
0.040612
-0.0133073
0.0413271
-0.0124094
0.0419914
-0.0114998
0.0426042
-0.0105791
0.0431638
-0.00969082
0.0436708
-0.00876178
0.0441249
-0.00782302
0.0445257
-0.00687619
0.0448726
-0.00592188
0.0451654
-0.00497629
0.0454042
-0.00399045
0.0455888
-0.0030177
0.0457188
-0.00207682
0.0457939
-0.00116821
-0.000292047