/*--------------------------------*- C++ -*----------------------------------*\
| =========                 |                                                 |
| \\      /  F ield         | OpenFOAM: The Open Source CFD Toolbox           |
|  \\    /   O peration     | Version:  3.0.1                                 |
|   \\  /    A nd           | Web:      www.OpenFOAM.org                      |
|    \\/     M anipulation  |                                                 |
\*---------------------------------------------------------------------------*/
FoamFile
{
    version     2.0;
    format      ascii;
    class       volVectorField;
    location    "500";
    object      U;
}
// * * * * * * * * * * * * * * * * * * * * * * * * * * * * * * * * * * * * * //

dimensions      [0 1 -1 0 0 0 0];

internalField   nonuniform List<vector> 
58000
(
(0.298733 1.20592 2.57794e-21)
(0.447971 1.32842 -1.95451e-20)
(0.599936 1.36332 2.09028e-20)
(0.728363 1.31437 -3.14562e-20)
(0.828959 1.22243 -6.30494e-20)
(0.907425 1.11219 0)
(0.968867 1.00269 -3.52728e-20)
(1.01486 0.897166 -4.9071e-22)
(1.05174 0.800601 4.01924e-20)
(1.08119 0.718537 0)
(1.10482 0.647733 4.33749e-20)
(1.1249 0.587118 4.12706e-20)
(1.14349 0.538612 -1.31029e-19)
(1.15712 0.498718 4.56169e-20)
(1.16699 0.464787 4.08821e-20)
(1.17462 0.436502 8.15429e-20)
(1.18004 0.412934 -1.19716e-19)
(1.18385 0.392376 0)
(1.18649 0.373483 7.5284e-20)
(1.18825 0.355843 -1.11475e-19)
(1.18921 0.339707 9.77531e-22)
(1.18926 0.324649 3.61629e-20)
(1.18887 0.310157 1.71256e-20)
(1.18755 0.295683 0)
(1.18604 0.281823 3.23839e-20)
(1.18363 0.268741 -1.59674e-20)
(1.18086 0.256099 0)
(1.17778 0.243722 2.92267e-22)
(1.17399 0.231347 0)
(1.17014 0.219486 -1.47484e-20)
(1.16569 0.208265 7.19641e-20)
(1.16104 0.197374 -7.14512e-20)
(1.15621 0.186689 -4.1933e-20)
(1.15097 0.176079 1.10076e-19)
(1.14547 0.165688 -2.73068e-20)
(1.13747 0.155399 -1.33959e-20)
(1.12604 0.145561 1.99651e-20)
(1.11436 0.136924 -1.28231e-20)
(1.10401 0.129541 1.91385e-20)
(1.10282 0.124723 0)
(0.552145 0.793668 -7.12041e-21)
(0.669716 0.869318 0)
(0.788314 0.926511 3.7988e-23)
(0.902907 0.979217 -3.84238e-23)
(1.00844 1.01102 3.83874e-20)
(1.10331 1.01822 3.12019e-20)
(1.18358 1.00497 -5.90445e-20)
(1.25079 0.975215 1.68488e-20)
(1.30508 0.932522 7.92741e-20)
(1.34548 0.883686 -4.32559e-20)
(1.37495 0.830476 0)
(1.39463 0.775342 -7.7753e-20)
(1.40526 0.723434 5.20276e-20)
(1.41039 0.675397 2.7781e-20)
(1.41153 0.629555 -2.77164e-20)
(1.40998 0.587898 0)
(1.40685 0.551165 2.72416e-20)
(1.40268 0.517626 0)
(1.3978 0.486262 1.03492e-19)
(1.39265 0.457494 -1.54836e-19)
(1.38752 0.431757 0)
(1.3823 0.408004 1.24689e-19)
(1.37695 0.385391 -9.90985e-20)
(1.37135 0.363635 0)
(1.36587 0.343567 -3.55664e-20)
(1.36042 0.325119 0)
(1.35479 0.307389 0)
(1.34898 0.290198 3.39789e-20)
(1.34287 0.273437 0)
(1.3368 0.257735 -3.29836e-20)
(1.33073 0.243074 4.36662e-20)
(1.32448 0.228835 -4.2524e-20)
(1.31801 0.214895 3.17067e-20)
(1.31128 0.201202 -2.09018e-20)
(1.3043 0.187987 0)
(1.29709 0.175432 -3.05509e-20)
(1.28966 0.163983 2.01438e-20)
(1.28232 0.153936 0)
(1.27558 0.144791 -4.9493e-21)
(1.27032 0.136933 9.69163e-21)
(0.566266 0.721129 1.662e-21)
(0.622722 0.783236 -5.00601e-22)
(0.691997 0.8347 1.78309e-21)
(0.769653 0.873831 1.14222e-21)
(0.850853 0.90049 -1.18937e-21)
(0.934014 0.915705 -1.74403e-20)
(1.01265 0.918897 2.17513e-20)
(1.08746 0.910292 0)
(1.15537 0.891119 -2.90889e-20)
(1.21285 0.863446 2.66073e-20)
(1.26221 0.828605 3.26656e-20)
(1.30298 0.78888 -1.78875e-21)
(1.33373 0.74791 0)
(1.35706 0.706609 7.26767e-20)
(1.37476 0.665116 -3.79267e-20)
(1.38701 0.625922 0)
(1.39485 0.590033 0)
(1.39966 0.556421 0)
(1.40223 0.524608 -1.87136e-20)
(1.40299 0.495211 1.98239e-20)
(1.40243 0.468571 0)
(1.40091 0.443772 1.84044e-20)
(1.39865 0.420171 0)
(1.39576 0.397607 0)
(1.39244 0.376769 3.66585e-20)
(1.38879 0.357428 -7.20355e-20)
(1.38475 0.338812 7.2071e-20)
(1.38039 0.320844 1.71941e-20)
(1.3757 0.303458 -3.52083e-20)
(1.37085 0.287154 -2.57356e-20)
(1.36584 0.2718 0)
(1.36057 0.256877 1.65308e-20)
(1.35505 0.242353 0)
(1.34927 0.228214 3.0605e-22)
(1.34329 0.214672 -2.42317e-20)
(1.33704 0.201773 1.62872e-20)
(1.33047 0.189489 0)
(1.32385 0.177921 0)
(1.31745 0.166871 -3.88719e-21)
(1.31173 0.155996 -4.08642e-21)
(0.642609 0.646954 3.08328e-21)
(0.681562 0.693088 6.69117e-22)
(0.726133 0.736005 -1.51459e-21)
(0.777012 0.772961 -1.0465e-23)
(0.833048 0.801374 4.08582e-21)
(0.893463 0.820905 0)
(0.954364 0.830828 -9.27622e-21)
(1.01502 0.831941 0)
(1.07387 0.824688 -1.72127e-20)
(1.12742 0.809998 -3.34032e-21)
(1.17657 0.788741 -2.18526e-20)
(1.22043 0.762113 2.09123e-20)
(1.2568 0.73246 -2.65026e-20)
(1.2869 0.700632 -5.36401e-20)
(1.31208 0.666955 -2.82112e-20)
(1.33175 0.633494 2.9124e-20)
(1.34646 0.601395 -2.74239e-20)
(1.35761 0.570258 0)
(1.36599 0.540005 -1.30001e-20)
(1.37187 0.511423 -5.86716e-20)
(1.37564 0.485005 5.88663e-20)
(1.3779 0.460091 -1.50869e-20)
(1.379 0.436189 0)
(1.37913 0.413222 0)
(1.37839 0.391865 4.26066e-20)
(1.37697 0.371939 -5.73575e-20)
(1.37497 0.352738 5.6405e-20)
(1.37246 0.334186 -5.88881e-22)
(1.36947 0.316222 -1.11328e-19)
(1.36613 0.299322 6.96059e-20)
(1.36249 0.283379 -2.71131e-20)
(1.3585 0.267901 -1.35196e-20)
(1.35419 0.252856 5.35995e-20)
(1.34955 0.238225 -1.9901e-20)
(1.34466 0.224218 6.72039e-21)
(1.33958 0.210884 -6.38745e-21)
(1.33426 0.198062 -6.33229e-21)
(1.32879 0.18574 0)
(1.32329 0.173856 3.1417e-21)
(1.31803 0.162413 -3.27118e-21)
(0.68428 0.600009 -1.34723e-21)
(0.712438 0.636568 -1.76018e-21)
(0.744665 0.672302 -1.69215e-22)
(0.781871 0.70538 -6.59935e-22)
(0.824051 0.733373 -1.23949e-21)
(0.871095 0.755366 0)
(0.920372 0.76972 3.87232e-21)
(0.971216 0.776687 3.64139e-21)
(1.02225 0.776471 0)
(1.07052 0.769304 1.11183e-20)
(1.11655 0.755957 1.29357e-20)
(1.15938 0.737296 0)
(1.19667 0.714857 -1.8937e-20)
(1.22908 0.689428 2.01392e-20)
(1.2576 0.661466 0)
(1.28123 0.632655 -3.97433e-20)
(1.30008 0.604079 1.08359e-19)
(1.31537 0.57564 4.87515e-22)
(1.32777 0.547437 -2.12521e-20)
(1.33736 0.520295 0)
(1.34442 0.494788 0)
(1.34961 0.470448 0)
(1.35337 0.446917 2.23261e-20)
(1.35589 0.424184 0)
(1.35723 0.402914 0)
(1.35762 0.382961 0)
(1.35727 0.36369 3.42232e-20)
(1.35627 0.345043 -4.5525e-20)
(1.35467 0.326982 5.57138e-20)
(1.35255 0.309955 -3.40058e-20)
(1.35001 0.293854 0)
(1.34704 0.278217 0)
(1.34369 0.263023 -1.10459e-20)
(1.33997 0.248259 3.27386e-20)
(1.33596 0.23412 -2.52716e-22)
(1.33171 0.220637 -2.66403e-20)
(1.32722 0.207603 1.60754e-20)
(1.32251 0.194964 0)
(1.31761 0.182714 0)
(1.31263 0.170904 -5.27152e-21)
(0.721384 0.562945 0)
(0.743247 0.592395 1.29559e-21)
(0.767558 0.621913 1.06842e-21)
(0.795457 0.650448 6.99535e-22)
(0.827534 0.676193 -1.56261e-21)
(0.864216 0.69833 3.0117e-21)
(0.903955 0.714918 2.17243e-21)
(0.946212 0.725814 8.04151e-21)
(0.989986 0.730741 1.24401e-21)
(1.03276 0.72938 -1.6729e-20)
(1.07474 0.722354 -5.04492e-22)
(1.11502 0.710196 -3.36794e-20)
(1.15132 0.69385 4.95832e-20)
(1.18394 0.674049 -2.6261e-20)
(1.21359 0.651289 2.98388e-20)
(1.2391 0.626899 -2.86178e-20)
(1.26029 0.601867 0)
(1.27817 0.576296 0)
(1.29327 0.550394 0)
(1.30551 0.524973 0)
(1.31504 0.500655 -1.87073e-20)
(1.32252 0.477148 -1.76119e-20)
(1.3284 0.454207 5.43553e-20)
(1.33286 0.43188 -3.68101e-20)
(1.33593 0.410825 0)
(1.33784 0.390945 1.79216e-20)
(1.33888 0.371686 -2.72817e-20)
(1.33914 0.353005 3.69939e-20)
(1.33869 0.334878 -6.38051e-20)
(1.3376 0.317736 1.84224e-20)
(1.33597 0.301484 -3.61277e-20)
(1.33386 0.285694 3.63205e-20)
(1.3313 0.270345 -4.23272e-22)
(1.32831 0.255423 9.14676e-21)
(1.32498 0.241114 0)
(1.32137 0.227442 0)
(1.31748 0.214199 -8.72107e-21)
(1.31332 0.201322 8.76855e-21)
(1.3089 0.188832 0)
(1.30429 0.176808 -4.19034e-21)
(0.750153 0.533428 7.50187e-22)
(0.768131 0.557787 -8.58249e-22)
(0.787715 0.582468 -1.53036e-22)
(0.809832 0.606845 -4.202e-23)
(0.83518 0.629662 -1.52847e-21)
(0.864403 0.650399 -3.03491e-21)
(0.8967 0.667269 -2.81401e-21)
(0.931796 0.680006 -9.64331e-22)
(0.969083 0.688082 0)
(1.00653 0.690779 0)
(1.04421 0.688526 6.17865e-21)
(1.0813 0.681559 0)
(1.11572 0.670313 0)
(1.14748 0.655414 -2.06414e-20)
(1.17711 0.637352 1.08467e-20)
(1.20335 0.617122 -2.25563e-20)
(1.22582 0.595591 1.25861e-20)
(1.24533 0.572993 0)
(1.26228 0.549596 1.29236e-20)
(1.27645 0.526164 1.47226e-20)
(1.28788 0.503337 -2.95513e-20)
(1.29719 0.480964 4.42338e-20)
(1.30481 0.458902 1.26722e-22)
(1.3109 0.437245 -2.97091e-20)
(1.31544 0.416642 1.54637e-20)
(1.31867 0.397049 -3.01985e-20)
(1.32091 0.377989 -3.02609e-20)
(1.32228 0.359441 -1.4735e-20)
(1.32284 0.341398 1.55308e-20)
(1.32266 0.324276 -3.70799e-20)
(1.32183 0.307997 6.01196e-20)
(1.32046 0.292162 -2.62563e-22)
(1.31858 0.276757 -5.9914e-20)
(1.31623 0.26177 7.6861e-21)
(1.31348 0.247378 0)
(1.31039 0.233604 2.18714e-20)
(1.30699 0.220245 -7.58285e-21)
(1.30326 0.207237 0)
(1.29923 0.194615 3.59831e-21)
(1.29492 0.182462 3.90999e-21)
(0.773974 0.508944 -8.34539e-22)
(0.789246 0.529492 2.16366e-22)
(0.805624 0.550415 1.87299e-22)
(0.823851 0.571314 2.54524e-24)
(0.84457 0.591291 1.87079e-22)
(0.868436 0.610064 2.71735e-21)
(0.895067 0.62614 -1.41812e-21)
(0.924383 0.639279 2.63868e-21)
(0.956092 0.648908 -2.75393e-21)
(0.988629 0.654119 0)
(1.02205 0.65519 3.56859e-21)
(1.05568 0.652131 -1.22089e-20)
(1.08765 0.64498 6.41116e-21)
(1.11785 0.634227 -2.25339e-20)
(1.14664 0.620306 2.62939e-20)
(1.17277 0.603903 -2.63424e-20)
(1.19571 0.585737 2.90406e-20)
(1.21611 0.566118 0)
(1.23423 0.545336 -1.12431e-20)
(1.24976 0.52408 1.16521e-20)
(1.26263 0.502969 -1.19748e-20)
(1.27339 0.481971 2.35754e-20)
(1.28244 0.461028 -4.78918e-20)
(1.28991 0.440273 2.41953e-20)
(1.29573 0.420332 1.2755e-20)
(1.30012 0.401212 1.2803e-20)
(1.30345 0.382518 -2.49383e-20)
(1.30581 0.36425 5.02792e-20)
(1.3073 0.346418 0)
(1.30795 0.329426 3.80807e-20)
(1.30786 0.313213 -3.7435e-20)
(1.30717 0.297418 2.50162e-20)
(1.30592 0.282029 -1.87565e-20)
(1.30416 0.267042 6.41186e-21)
(1.30193 0.252623 6.08828e-21)
(1.29932 0.2388 -2.98633e-22)
(1.29634 0.225379 -6.34175e-21)
(1.293 0.212303 0)
(1.28932 0.19961 -3.04254e-21)
(1.28531 0.187385 3.19638e-21)
(0.793838 0.488125 0)
(0.807163 0.505751 0)
(0.821288 0.523729 -1.42697e-21)
(0.836802 0.54179 3.56124e-22)
(0.854262 0.559263 2.59366e-22)
(0.874258 0.57602 -2.51713e-21)
(0.896627 0.590845 3.25098e-21)
(0.921399 0.603575 0)
(0.948497 0.613687 0)
(0.976742 0.620243 -6.36208e-21)
(1.00621 0.623427 -9.03071e-21)
(1.03638 0.623114 -5.41045e-24)
(1.06568 0.619066 1.60399e-20)
(1.09389 0.611641 -3.45194e-21)
(1.1213 0.6012 -1.0489e-20)
(1.1467 0.58816 0)
(1.16949 0.573085 0)
(1.19016 0.556309 0)
(1.20888 0.538116 0)
(1.22526 0.519099 -1.81013e-20)
(1.23914 0.499836 1.83294e-20)
(1.251 0.480383 2.84311e-20)
(1.26118 0.460747 -3.92146e-20)
(1.26978 0.441086 1.0225e-20)
(1.27669 0.421993 0)
(1.2821 0.403525 -2.05955e-20)
(1.2864 0.385362 2.0773e-20)
(1.28967 0.367524 -1.08256e-20)
(1.29201 0.350042 0)
(1.29342 0.333302 -1.08281e-20)
(1.29403 0.317266 1.09898e-20)
(1.29398 0.301608 4.23823e-20)
(1.29333 0.286326 -4.24238e-20)
(1.29211 0.271418 2.1256e-20)
(1.29037 0.257048 -5.42635e-21)
(1.28821 0.243246 -2.62101e-20)
(1.28564 0.229832 1.05765e-20)
(1.28267 0.216752 5.21602e-21)
(1.27932 0.204049 -7.83957e-21)
(1.2756 0.191803 2.71811e-21)
(0.810695 0.470075 0)
(0.822539 0.4854 0)
(0.834994 0.501033 8.56025e-22)
(0.848528 0.516782 -3.23994e-22)
(0.863613 0.532124 1.38375e-22)
(0.880759 0.547019 1.43971e-21)
(0.899906 0.560482 -2.41381e-21)
(0.921142 0.572416 -1.4022e-21)
(0.944507 0.582384 4.54192e-21)
(0.969123 0.589503 -4.80227e-21)
(0.995088 0.593905 -9.97803e-23)
(1.02204 0.595401 8.75474e-23)
(1.04865 0.593591 6.31301e-21)
(1.0747 0.588721 9.56205e-21)
(1.1004 0.58108 1.16328e-20)
(1.12465 0.570872 -1.68328e-22)
(1.14683 0.558513 -1.14084e-20)
(1.16729 0.544327 0)
(1.18614 0.528573 -1.31132e-20)
(1.20294 0.511743 1.38782e-20)
(1.21744 0.494357 -1.53443e-20)
(1.23005 0.476527 8.07457e-21)
(1.24107 0.458306 2.86114e-22)
(1.25056 0.439867 8.84314e-21)
(1.25836 0.421763 -1.68863e-20)
(1.26464 0.404088 0)
(1.26977 0.386592 2.59332e-20)
(1.27385 0.369315 -4.38739e-20)
(1.27695 0.352303 3.55182e-20)
(1.27906 0.335927 -2.71666e-20)
(1.28032 0.32017 -1.79091e-20)
(1.28087 0.304745 1.80527e-20)
(1.28078 0.289655 1.80049e-20)
(1.28007 0.274907 -1.81159e-20)
(1.27881 0.260658 8.99503e-21)
(1.27707 0.246945 2.00455e-22)
(1.27489 0.2336 0)
(1.27228 0.220577 0)
(1.26926 0.207918 4.37044e-21)
(1.26582 0.1957 0)
(0.825176 0.454186 6.97099e-22)
(0.835856 0.467662 1.13927e-22)
(0.847022 0.481397 -1.15672e-22)
(0.859056 0.495247 2.07509e-24)
(0.872352 0.508794 0)
(0.887344 0.522043 -5.47447e-22)
(0.904022 0.534189 7.41618e-22)
(0.922496 0.545187 -7.54961e-22)
(0.942865 0.554683 2.4913e-21)
(0.964468 0.561881 -2.9973e-21)
(0.987423 0.56689 4.53866e-21)
(1.01148 0.569502 0)
(1.03556 0.569238 -5.78831e-21)
(1.05944 0.566259 1.66685e-21)
(1.0833 0.560793 1.66332e-20)
(1.10617 0.552888 -1.78576e-20)
(1.12743 0.542832 2.94268e-20)
(1.14733 0.530921 -1.01431e-20)
(1.16593 0.517377 1.17925e-20)
(1.18277 0.502594 -1.24857e-20)
(1.19757 0.487023 0)
(1.21063 0.470813 1.35777e-20)
(1.22221 0.454043 1.29764e-20)
(1.23235 0.436891 0)
(1.24083 0.419861 0)
(1.24782 0.403078 1.40171e-20)
(1.25365 0.386352 7.15415e-21)
(1.25842 0.369738 -7.18992e-21)
(1.26218 0.353297 1.46545e-20)
(1.26493 0.337381 2.26763e-20)
(1.26677 0.321995 -1.53299e-20)
(1.26787 0.306887 0)
(1.2683 0.292069 -1.54347e-20)
(1.26808 0.277554 1.55356e-20)
(1.26727 0.263497 7.73329e-21)
(1.26593 0.249936 -6.20953e-23)
(1.26412 0.236721 -7.79337e-21)
(1.26186 0.223811 0)
(1.25915 0.21125 -1.15044e-20)
(1.25599 0.199107 0)
(0.83775 0.440028 -8.28081e-22)
(0.847487 0.45199 8.2234e-22)
(0.857628 0.464165 5.18568e-22)
(0.868484 0.476442 -3.06205e-22)
(0.88039 0.488474 3.34281e-23)
(0.893711 0.500294 5.03712e-22)
(0.908463 0.511233 8.56056e-22)
(0.924756 0.521281 -1.32276e-21)
(0.942715 0.530154 -2.93401e-22)
(0.961832 0.537152 2.487e-21)
(0.982238 0.542374 -6.74799e-21)
(1.00377 0.545616 -6.47926e-22)
(1.02554 0.546377 1.48458e-20)
(1.04736 0.544757 -1.04779e-20)
(1.06938 0.540937 -6.76001e-21)
(1.09076 0.534858 8.08948e-21)
(1.11092 0.526704 -1.5993e-20)
(1.13003 0.516734 -8.16052e-21)
(1.14812 0.50513 1.88736e-20)
(1.16472 0.492201 -1.91761e-20)
(1.17952 0.478326 0)
(1.19277 0.463669 0)
(1.20467 0.448324 -9.0105e-22)
(1.21523 0.432467 0)
(1.22421 0.416548 0)
(1.23174 0.400713 -1.27357e-20)
(1.23813 0.384823 -1.21363e-20)
(1.24346 0.368945 -1.23665e-20)
(1.24779 0.353149 1.21147e-20)
(1.25108 0.337769 -7.10512e-21)
(1.25344 0.322827 -3.60055e-22)
(1.25504 0.308109 1.3261e-20)
(1.25594 0.293631 0)
(1.25616 0.279415 1.98432e-20)
(1.25577 0.26561 -1.34528e-20)
(1.25481 0.25226 -1.32381e-20)
(1.25336 0.23923 6.74708e-21)
(1.25142 0.226485 -3.3436e-21)
(1.24903 0.214069 1.0251e-20)
(1.24614 0.202046 0)
(0.848769 0.427286 5.51226e-22)
(0.857724 0.437989 -3.35664e-22)
(0.867025 0.448863 -1.24973e-22)
(0.876931 0.459822 2.71366e-22)
(0.887726 0.470572 -1.44349e-23)
(0.899721 0.481158 2.64703e-22)
(0.912938 0.491017 -1.06473e-21)
(0.927484 0.500161 2.28714e-21)
(0.943488 0.508364 -3.25712e-21)
(0.960553 0.515014 -2.28737e-21)
(0.978813 0.520205 2.86362e-21)
(0.998164 0.52375 -3.54821e-21)
(1.01788 0.525158 7.37242e-21)
(1.0378 0.52449 4.83434e-21)
(1.05807 0.521891 1.04291e-20)
(1.07796 0.517231 6.26427e-22)
(1.09692 0.510616 -6.84559e-21)
(1.11511 0.502268 2.88041e-20)
(1.1325 0.492332 -3.78212e-20)
(1.14866 0.48104 3.27089e-20)
(1.16325 0.468706 -8.65405e-21)
(1.17647 0.455495 0)
(1.18849 0.441508 -7.55582e-22)
(1.19927 0.426908 0)
(1.20857 0.412097 0)
(1.21648 0.397229 0)
(1.2233 0.382207 7.24323e-22)
(1.22908 0.367106 3.3263e-20)
(1.23386 0.352004 -3.35474e-20)
(1.23761 0.337214 -3.51154e-22)
(1.24041 0.322774 -2.305e-20)
(1.24245 0.308501 1.14511e-20)
(1.24376 0.29442 -1.12602e-20)
(1.24439 0.280556 -1.75784e-20)
(1.24437 0.267056 -5.67429e-21)
(1.24377 0.253968 1.16941e-20)
(1.24265 0.241172 0)
(1.24102 0.228637 -5.70797e-21)
(1.23892 0.216409 -7.15445e-21)
(1.2363 0.204547 1.50044e-21)
(0.858501 0.415723 5.00034e-22)
(0.866795 0.425365 0)
(0.875394 0.435141 -9.68406e-22)
(0.884514 0.444984 2.46697e-22)
(0.894399 0.454641 -2.57647e-23)
(0.905315 0.464161 3.40037e-23)
(0.917286 0.473064 0)
(0.930409 0.481377 -9.90292e-22)
(0.944811 0.488915 1.4116e-21)
(0.960172 0.495147 -1.95105e-21)
(0.976623 0.500164 -2.5111e-21)
(0.994102 0.503801 -4.47907e-22)
(1.01201 0.505591 -4.27197e-22)
(1.03022 0.505571 0)
(1.04886 0.503859 -1.35709e-20)
(1.06731 0.500287 1.43803e-20)
(1.08507 0.494902 0)
(1.10226 0.487889 -1.18575e-20)
(1.11885 0.479364 6.71688e-21)
(1.13443 0.469493 -1.41107e-20)
(1.14865 0.458531 6.64884e-21)
(1.16168 0.446639 0)
(1.17364 0.433913 7.9967e-21)
(1.18448 0.420505 -8.45628e-21)
(1.19395 0.406766 0)
(1.2021 0.392855 -1.80968e-20)
(1.20922 0.378707 1.8901e-20)
(1.21533 0.3644 9.80156e-21)
(1.22047 0.350018 -1.9059e-20)
(1.22458 0.335852 0)
(1.22776 0.321953 2.88551e-22)
(1.23017 0.308167 -1.96209e-20)
(1.23184 0.294524 1.03476e-20)
(1.23282 0.281055 0)
(1.23314 0.267903 5.22872e-21)
(1.23286 0.255118 -5.24483e-21)
(1.23204 0.242595 4.98216e-21)
(1.2307 0.230311 5.26348e-21)
(1.22888 0.218308 1.02483e-20)
(1.2265 0.206644 5.0765e-21)
(0.867156 0.405159 0)
(0.874881 0.413896 0)
(0.88288 0.422735 2.73045e-23)
(0.891338 0.431624 -4.48338e-22)
(0.900463 0.440342 7.62721e-24)
(0.910484 0.448936 2.08327e-22)
(0.921424 0.456997 0)
(0.93337 0.464556 0)
(0.94644 0.471464 1.26409e-21)
(0.960374 0.477256 -1.29507e-21)
(0.975295 0.48202 4.61528e-22)
(0.991168 0.485613 -2.06102e-21)
(1.00749 0.487602 0)
(1.02417 0.48801 0)
(1.04133 0.486935 6.85294e-21)
(1.05842 0.484186 -7.79024e-21)
(1.07501 0.479773 7.50309e-22)
(1.0912 0.473849 5.95033e-21)
(1.10693 0.466502 -1.04451e-20)
(1.12184 0.457849 0)
(1.13559 0.448093 5.99171e-21)
(1.14831 0.437383 6.33541e-21)
(1.16007 0.42581 0)
(1.17084 0.41351 7.12331e-21)
(1.18035 0.400789 -1.48327e-20)
(1.18862 0.387802 0)
(1.19592 0.374512 8.24405e-21)
(1.20225 0.360996 -7.96788e-21)
(1.20766 0.347341 2.45817e-20)
(1.21206 0.333816 0)
(1.21553 0.320481 1.71803e-20)
(1.21824 0.307209 8.95282e-21)
(1.22022 0.294034 8.53463e-21)
(1.22151 0.280993 -8.82454e-21)
(1.22212 0.26822 8.91142e-21)
(1.22213 0.255772 0)
(1.22158 0.243556 -4.61396e-21)
(1.22051 0.231553 0)
(1.21893 0.219808 -4.62349e-21)
(1.21679 0.208372 -4.68055e-21)
(0.874899 0.39545 3.04287e-22)
(0.882127 0.403406 -4.19369e-22)
(0.889607 0.411438 8.57406e-22)
(0.897496 0.419504 2.06674e-22)
(0.905973 0.427409 -1.402e-23)
(0.915238 0.435199 -3.43486e-22)
(0.92531 0.442517 1.5144e-22)
(0.936269 0.449398 -1.24543e-21)
(0.948219 0.45572 -7.1272e-22)
(0.960946 0.461075 -1.09409e-21)
(0.974563 0.465549 3.02507e-22)
(0.989053 0.469016 4.12033e-21)
(1.004 0.471083 -4.22565e-21)
(1.01932 0.47176 -5.59569e-22)
(1.03513 0.471133 -6.55964e-22)
(1.05097 0.469004 1.44671e-20)
(1.06645 0.465354 -7.28828e-21)
(1.08164 0.46031 8.1209e-21)
(1.09651 0.453941 -9.50401e-21)
(1.11071 0.446322 7.4999e-23)
(1.12392 0.437615 -5.56183e-21)
(1.13623 0.427952 5.6374e-21)
(1.14771 0.417419 -1.7887e-22)
(1.1583 0.406135 0)
(1.16774 0.394364 0)
(1.17604 0.382256 -1.29736e-20)
(1.18341 0.369792 -6.69154e-21)
(1.18988 0.357048 -6.87845e-21)
(1.19546 0.344112 -4.59917e-22)
(1.20007 0.33123 -2.20397e-20)
(1.20378 0.318472 7.20783e-21)
(1.20673 0.305729 0)
(1.20896 0.293041 -1.56257e-20)
(1.2105 0.280448 1.53043e-20)
(1.21137 0.268079 0)
(1.21162 0.255993 7.84802e-21)
(1.21132 0.244109 -3.98235e-21)
(1.21048 0.232414 -7.92394e-21)
(1.20913 0.220952 5.95756e-21)
(1.2072 0.20977 -5.90518e-21)
(0.881863 0.386482 0)
(0.888653 0.39376 0)
(0.895676 0.40109 -6.56602e-22)
(0.903068 0.40844 0)
(0.910986 0.415636 0)
(0.919602 0.422721 -1.25894e-22)
(0.928933 0.429384 1.29054e-22)
(0.939049 0.435658 1.17306e-21)
(0.950046 0.441442 1.67611e-21)
(0.961741 0.446379 3.20138e-21)
(0.974239 0.450549 4.1185e-21)
(0.987533 0.453843 3.51902e-21)
(1.00127 0.455906 -3.16834e-21)
(1.01539 0.456741 1.70254e-22)
(1.02999 0.456423 -4.87983e-21)
(1.04468 0.454756 1.18328e-20)
(1.05912 0.451703 -6.27712e-21)
(1.07336 0.44737 6.95842e-21)
(1.08738 0.441808 0)
(1.10084 0.435063 1.7735e-20)
(1.11347 0.42726 -1.77788e-20)
(1.12532 0.41852 -9.39738e-21)
(1.13645 0.408915 -2.06386e-20)
(1.14679 0.398553 -5.36252e-22)
(1.15608 0.387659 -3.22277e-22)
(1.16431 0.376376 2.3608e-20)
(1.17169 0.364696 6.23664e-21)
(1.17822 0.352696 1.8429e-20)
(1.1839 0.340459 -1.88424e-20)
(1.18865 0.328212 6.69921e-21)
(1.19252 0.316029 1.32041e-20)
(1.19566 0.303821 -1.33276e-20)
(1.19809 0.29163 0)
(1.19984 0.279498 -7.04098e-21)
(1.20092 0.267548 0)
(1.20138 0.255842 1.68805e-22)
(1.20129 0.24431 -6.99501e-21)
(1.20065 0.232943 0)
(1.19951 0.221783 6.83823e-21)
(1.19778 0.210877 1.89537e-22)
(0.888156 0.378162 5.89187e-22)
(0.894553 0.384846 -8.77413e-23)
(0.901171 0.391562 1.09524e-22)
(0.908125 0.398284 -1.74995e-24)
(0.915552 0.404859 7.00696e-23)
(0.923603 0.411324 1.08923e-22)
(0.932292 0.417405 2.80991e-22)
(0.941682 0.423136 5.34656e-22)
(0.951856 0.42843 7.92236e-22)
(0.962661 0.432974 -2.71616e-21)
(0.97419 0.436842 -2.38927e-21)
(0.986443 0.439938 0)
(0.999121 0.441943 6.72178e-21)
(1.01217 0.442859 6.95539e-23)
(1.02568 0.442748 -8.48661e-21)
(1.03933 0.441423 -5.30139e-21)
(1.0528 0.438836 5.44973e-21)
(1.06615 0.435077 5.97984e-21)
(1.07934 0.43018 -6.56993e-21)
(1.09209 0.424172 0)
(1.10412 0.417147 8.27924e-21)
(1.11548 0.409213 9.27309e-21)
(1.1262 0.400434 1.02248e-21)
(1.13623 0.390902 -2.8017e-20)
(1.1453 0.38081 -9.52733e-21)
(1.15341 0.370292 0)
(1.16073 0.359351 1.06524e-20)
(1.16724 0.348057 -2.2001e-20)
(1.17296 0.336492 1.15005e-20)
(1.17779 0.324865 -3.84546e-22)
(1.18177 0.313248 1.11718e-20)
(1.18504 0.301572 2.32047e-20)
(1.18763 0.289879 -5.81303e-21)
(1.18954 0.278213 0)
(1.19079 0.266692 -5.94e-21)
(1.19143 0.255377 6.33033e-21)
(1.19152 0.24421 0)
(1.19107 0.233185 6.05116e-21)
(1.19011 0.222344 -7.95646e-21)
(1.18855 0.21173 4.75804e-21)
(0.893865 0.370415 0)
(0.89991 0.376574 0)
(0.906164 0.382748 -2.29641e-22)
(0.912726 0.388917 -1.55406e-24)
(0.919717 0.394943 -9.86695e-23)
(0.92727 0.400859 0)
(0.935397 0.406423 5.17424e-22)
(0.944152 0.411668 -1.69841e-21)
(0.953611 0.416518 0)
(0.963639 0.420696 0)
(0.974322 0.424271 0)
(0.985663 0.427161 -2.63757e-21)
(0.997405 0.429076 2.46233e-21)
(1.0095 0.430016 -3.40593e-22)
(1.02205 0.43004 -1.38774e-22)
(1.03474 0.428967 -6.74762e-23)
(1.04732 0.426743 -3.86573e-22)
(1.05983 0.423445 -5.64857e-21)
(1.07223 0.419098 0)
(1.08428 0.413709 0)
(1.09571 0.407353 0)
(1.10656 0.400123 2.27568e-20)
(1.11686 0.392074 -1.47207e-20)
(1.12654 0.383286 1.68741e-20)
(1.13535 0.373925 4.61864e-22)
(1.14329 0.364113 -9.06322e-21)
(1.15048 0.35386 9.15418e-21)
(1.15693 0.343233 -9.65069e-21)
(1.16263 0.332308 1.92435e-20)
(1.16749 0.321277 -6.18165e-22)
(1.17153 0.310213 -1.05754e-20)
(1.17489 0.299059 -6.18482e-22)
(1.17758 0.28786 -4.83846e-21)
(1.17962 0.27666 1.07129e-20)
(1.18101 0.26557 1.6359e-22)
(1.1818 0.254653 -5.46289e-21)
(1.18203 0.243858 5.48149e-21)
(1.18174 0.233185 -1.65999e-20)
(1.18094 0.222674 4.01477e-21)
(1.17953 0.212365 1.38131e-21)
(0.899065 0.363177 -1.33146e-22)
(0.90479 0.368871 2.57823e-22)
(0.910713 0.374563 8.48782e-22)
(0.916922 0.380242 2.42327e-22)
(0.923523 0.38578 8.46056e-24)
(0.930633 0.391209 2.23195e-23)
(0.938261 0.396312 -3.41601e-23)
(0.946457 0.40112 -3.92511e-22)
(0.955285 0.405567 1.67298e-21)
(0.96463 0.409407 -2.58727e-21)
(0.974568 0.412704 1.68338e-21)
(0.985104 0.415386 2.56808e-22)
(0.996016 0.417192 -5.00675e-21)
(1.00726 0.418121 -5.92031e-21)
(1.01893 0.418224 3.51786e-21)
(1.03077 0.417335 7.70852e-21)
(1.04253 0.415395 4.49766e-21)
(1.05426 0.41247 -1.36536e-20)
(1.06592 0.408576 0)
(1.07729 0.403711 0)
(1.08814 0.397929 5.86511e-21)
(1.09848 0.391311 1.32424e-20)
(1.10833 0.383908 -1.36551e-20)
(1.11764 0.375786 -5.68086e-22)
(1.12616 0.367087 -5.04992e-22)
(1.13388 0.357923 -4.48493e-22)
(1.14092 0.348308 7.87029e-21)
(1.14726 0.338305 8.35414e-21)
(1.1529 0.327986 -1.77029e-20)
(1.15773 0.317524 8.30389e-21)
(1.1618 0.306995 9.12432e-21)
(1.16521 0.29635 -4.77152e-22)
(1.16797 0.285635 3.20029e-22)
(1.1701 0.274895 9.52537e-21)
(1.17159 0.264235 -4.81143e-21)
(1.17249 0.253717 -9.71466e-21)
(1.17285 0.243299 4.90067e-21)
(1.17268 0.232983 5.06641e-21)
(1.17202 0.222809 -2.73616e-22)
(1.17075 0.212813 0)
(0.903817 0.356397 9.79185e-22)
(0.909249 0.361673 -1.68642e-22)
(0.91487 0.366936 -4.23737e-22)
(0.920759 0.372177 -2.15968e-22)
(0.927007 0.37728 -1.55899e-23)
(0.933718 0.382274 -1.50066e-22)
(0.940901 0.386964 -6.91362e-22)
(0.948597 0.391379 6.87164e-22)
(0.956866 0.395461 0)
(0.965605 0.398991 1.28187e-21)
(0.974881 0.402026 -1.59906e-21)
(0.984702 0.404505 3.98404e-21)
(0.994874 0.406192 -6.64036e-21)
(1.00536 0.407085 2.61967e-21)
(1.01624 0.40723 6.28583e-21)
(1.02729 0.406473 -9.9085e-21)
(1.03831 0.404755 0)
(1.04931 0.402131 4.32249e-21)
(1.06028 0.398613 0)
(1.071 0.39419 4.79058e-21)
(1.08128 0.388902 -1.65094e-20)
(1.09112 0.382819 1.10833e-20)
(1.10053 0.375985 -1.21204e-20)
(1.10945 0.368458 0)
(1.11766 0.360357 -6.49785e-21)
(1.12514 0.351786 0)
(1.13199 0.342761 -1.46518e-20)
(1.13819 0.33334 1.47982e-20)
(1.14372 0.323591 0)
(1.14851 0.313672 -1.61393e-20)
(1.15256 0.303654 -8.98776e-23)
(1.15598 0.293502 7.9637e-21)
(1.15878 0.28326 -8.3417e-21)
(1.16096 0.27297 0)
(1.16253 0.262735 0)
(1.16352 0.252614 0)
(1.16398 0.242574 1.28659e-20)
(1.16392 0.232617 -4.40532e-21)
(1.16337 0.222783 -2.45868e-22)
(1.16222 0.213106 0)
(0.908172 0.350028 -2.24888e-22)
(0.913334 0.35493 -1.51471e-22)
(0.918679 0.359808 3.55935e-22)
(0.924273 0.364656 -1.9355e-22)
(0.9302 0.369369 1.78601e-23)
(0.93655 0.373973 -1.79364e-22)
(0.94333 0.378292 1.48695e-22)
(0.950579 0.382352 -4.65137e-22)
(0.958347 0.386103 1.53287e-21)
(0.966543 0.389348 1.06362e-21)
(0.975229 0.39214 0)
(0.984411 0.394423 1.80427e-21)
(0.993918 0.395987 2.17522e-22)
(1.00372 0.396829 -2.50443e-21)
(1.01389 0.396989 4.94661e-21)
(1.02423 0.396325 0)
(1.03455 0.39478 0)
(1.04488 0.392402 1.47542e-20)
(1.0552 0.389197 6.00889e-22)
(1.06532 0.385148 -4.51662e-21)
(1.07505 0.380286 9.13523e-21)
(1.0844 0.374671 -9.75332e-21)
(1.09337 0.36834 -4.82831e-21)
(1.1019 0.361343 -1.15008e-20)
(1.10979 0.353784 1.78066e-20)
(1.117 0.345754 1.25537e-20)
(1.12364 0.337273 -3.19357e-20)
(1.12967 0.328394 1.961e-20)
(1.13508 0.319179 1.38144e-20)
(1.13978 0.309772 -7.13049e-21)
(1.14379 0.300244 0)
(1.1472 0.290565 7.13912e-21)
(1.15 0.280779 0)
(1.15221 0.27093 0)
(1.15383 0.261111 7.67869e-21)
(1.15489 0.251383 -1.53011e-20)
(1.15542 0.241717 -1.56592e-20)
(1.15545 0.232119 -7.65958e-21)
(1.15499 0.222626 -6.92834e-21)
(1.15395 0.213271 -9.70925e-22)
(0.912174 0.344032 0)
(0.917087 0.348597 0)
(0.922176 0.353127 -6.61751e-22)
(0.9275 0.357621 1.17792e-23)
(0.933131 0.361984 1.87176e-23)
(0.939152 0.366236 1.54536e-22)
(0.945567 0.37022 -3.29256e-22)
(0.952409 0.37396 0)
(0.959725 0.37741 -7.75627e-22)
(0.967433 0.380394 -2.91894e-21)
(0.975587 0.38296 2.36549e-21)
(0.984194 0.385058 2.87098e-21)
(0.993102 0.386499 0)
(1.00229 0.387279 -3.95359e-21)
(1.01181 0.387436 -9.44912e-21)
(1.0215 0.386837 1.01405e-20)
(1.03119 0.385428 4.52479e-22)
(1.0409 0.38325 -1.97774e-20)
(1.05061 0.380307 7.34521e-21)
(1.06016 0.376577 -2.35462e-20)
(1.06937 0.372083 -5.53912e-22)
(1.07824 0.366877 5.88988e-22)
(1.08678 0.360992 6.19745e-22)
(1.09492 0.35447 1.02264e-20)
(1.10248 0.347399 3.83426e-22)
(1.10942 0.339864 -1.03453e-20)
(1.11583 0.331884 -5.85142e-21)
(1.12168 0.323506 -6.40498e-21)
(1.12694 0.314791 1.20877e-20)
(1.13154 0.305868 -6.49477e-21)
(1.13547 0.296805 0)
(1.13884 0.28758 -1.76465e-22)
(1.14163 0.278234 -1.98626e-20)
(1.14385 0.268811 -2.954e-23)
(1.14549 0.259399 6.86603e-21)
(1.14659 0.250056 7.15739e-21)
(1.14718 0.24076 7.21689e-21)
(1.14727 0.231517 7.26561e-21)
(1.1469 0.222364 1.05463e-20)
(1.14595 0.213331 0)
(0.915862 0.338377 3.49015e-23)
(0.920543 0.342635 -4.15972e-22)
(0.925394 0.346851 3.07764e-22)
(0.930467 0.351026 -1.68279e-22)
(0.935825 0.355071 4.30033e-24)
(0.941544 0.359005 0)
(0.947624 0.362687 3.15598e-22)
(0.954097 0.366136 0)
(0.961003 0.369312 -1.31001e-21)
(0.968267 0.372057 1.82069e-21)
(0.97594 0.374414 -2.26122e-21)
(0.984027 0.376339 -2.74238e-21)
(0.992392 0.377659 -3.05631e-21)
(1.00101 0.378373 -1.05864e-22)
(1.00995 0.378512 8.22503e-21)
(1.01905 0.377957 7.3204e-23)
(1.02815 0.376655 4.28857e-22)
(1.03729 0.374641 0)
(1.04644 0.371918 1.31574e-20)
(1.05545 0.368462 -6.67123e-21)
(1.06417 0.364287 7.66932e-21)
(1.07258 0.359442 -7.67574e-21)
(1.0807 0.353952 2.5233e-20)
(1.08846 0.347855 0)
(1.09569 0.341227 0)
(1.10235 0.334143 6.10774e-22)
(1.10852 0.326623 -1.05663e-20)
(1.11416 0.318711 0)
(1.11926 0.310462 -4.11955e-22)
(1.12374 0.301995 1.1164e-20)
(1.12759 0.293374 -3.87169e-22)
(1.13089 0.284581 1.16974e-20)
(1.13364 0.275658 6.17726e-21)
(1.13585 0.266647 -1.2012e-20)
(1.1375 0.25763 -1.33532e-23)
(1.13862 0.248663 6.23561e-21)
(1.13925 0.239729 0)
(1.1394 0.230837 3.00836e-21)
(1.13909 0.222021 -3.36409e-21)
(1.13821 0.213307 -6.01497e-21)
(0.919267 0.333033 7.00059e-23)
(0.923732 0.337013 7.06054e-22)
(0.928362 0.340943 -8.20171e-23)
(0.9332 0.344828 2.81032e-22)
(0.938306 0.348585 6.13372e-23)
(0.943744 0.352231 -2.75331e-23)
(0.949518 0.355638 5.3974e-22)
(0.955651 0.358823 0)
(0.962182 0.36175 2.43933e-21)
(0.969042 0.364276 0)
(0.976276 0.36644 0)
(0.98389 0.368201 0)
(0.991761 0.369406 5.66648e-21)
(0.999871 0.370051 0)
(1.00827 0.370165 3.26853e-22)
(1.01682 0.369637 -1.25271e-20)
(1.02539 0.36842 9.05028e-21)
(1.034 0.366542 5.032e-21)
(1.04262 0.364005 0)
(1.05113 0.360784 -5.99021e-21)
(1.05937 0.356889 -6.8547e-21)
(1.06735 0.352362 1.2613e-23)
(1.07506 0.347224 -8.22441e-21)
(1.08245 0.341509 7.41299e-21)
(1.08936 0.335281 8.2677e-21)
(1.09574 0.328609 5.4e-22)
(1.10166 0.321513 -8.90298e-21)
(1.1071 0.314033 -3.77743e-22)
(1.11202 0.30622 -4.21173e-22)
(1.11636 0.298181 0)