/*--------------------------------*- C++ -*----------------------------------*\
| =========                 |                                                 |
| \\      /  F ield         | OpenFOAM: The Open Source CFD Toolbox           |
|  \\    /   O peration     | Version:  3.0.1                                 |
|   \\  /    A nd           | Web:      www.OpenFOAM.org                      |
|    \\/     M anipulation  |                                                 |
\*---------------------------------------------------------------------------*/
FoamFile
{
    version     2.0;
    format      ascii;
    class       volScalarField;
    location    "200";
    object      nut;
}
// * * * * * * * * * * * * * * * * * * * * * * * * * * * * * * * * * * * * * //

dimensions      [0 2 -1 0 0 0 0];

internalField   nonuniform List<scalar> 
58000
(
0.000841768
0.000731923
0.000639787
0.000576517
0.000529882
0.000493293
0.000468264
0.000447179
0.000432935
0.000423999
0.000417214
0.000413069
0.000411587
0.0004101
0.000408853
0.000408525
0.000409149
0.000410336
0.000411837
0.000413725
0.000416063
0.000418612
0.000421358
0.000424074
0.000427007
0.000429784
0.000432569
0.000435316
0.000437867
0.000440394
0.000442614
0.000444614
0.000446329
0.000447694
0.000448779
0.000449102
0.000448351
0.000447142
0.000445861
0.000446365
0.00327798
0.00291301
0.00251446
0.00215239
0.00186042
0.00163103
0.00145724
0.00131932
0.00121399
0.00113575
0.00107405
0.00102751
0.000993162
0.000964665
0.000937915
0.000916806
0.000901144
0.00088758
0.000874936
0.000864895
0.000857993
0.000852266
0.000847111
0.00084223
0.000839437
0.00083698
0.000834541
0.000832066
0.000829379
0.000827573
0.000825851
0.000822523
0.000817748
0.000811876
0.000805442
0.000797314
0.0007883
0.000779443
0.000771318
0.000769059
0.00584589
0.0053945
0.00487537
0.00433375
0.00384405
0.00342398
0.0030917
0.00281981
0.00260148
0.00243233
0.0022959
0.00218379
0.00209953
0.00203225
0.00197386
0.00192852
0.00189482
0.00186702
0.0018426
0.00182358
0.00181019
0.00179899
0.00178859
0.00177844
0.00177144
0.00176392
0.00175504
0.00174515
0.00173433
0.00172546
0.00171661
0.00170728
0.00169746
0.00168673
0.00167482
0.00166001
0.00164295
0.00162562
0.00161003
0.00160331
0.00845946
0.00795146
0.0073435
0.00670585
0.00609666
0.0055314
0.00505548
0.00464922
0.00431273
0.0040459
0.00382248
0.00363669
0.0034934
0.00337698
0.00327636
0.00319676
0.00313547
0.00308409
0.00303896
0.00300287
0.00297574
0.0029525
0.00292915
0.00290556
0.00288759
0.00287157
0.00285538
0.00283874
0.00282112
0.00280548
0.00278932
0.00277176
0.00275293
0.002733
0.002713
0.00268972
0.00266345
0.00263653
0.00261177
0.00259618
0.0110721
0.0105318
0.00987525
0.0091762
0.00848415
0.00782706
0.00724643
0.00672832
0.00628166
0.00591607
0.00560253
0.0053363
0.00512623
0.00495268
0.00480117
0.00467918
0.0045833
0.00450193
0.00442945
0.00436957
0.00432147
0.00427915
0.00423969
0.00420184
0.00417284
0.00414577
0.00411795
0.0040894
0.00406008
0.00403567
0.0040106
0.00398348
0.00395441
0.00392371
0.00389356
0.00385991
0.0038227
0.00378452
0.00374872
0.00372171
0.0136654
0.0131049
0.0124211
0.0116824
0.0109423
0.01022
0.0095645
0.00896463
0.00842858
0.00797589
0.00757831
0.00723292
0.00695392
0.00671968
0.00651289
0.0063429
0.00620631
0.00608925
0.00598301
0.00589311
0.00582085
0.00575742
0.00569932
0.00564262
0.00559586
0.00555395
0.00551277
0.00547187
0.00542955
0.00539178
0.00535512
0.00531756
0.00527728
0.0052347
0.00519279
0.00514724
0.0050977
0.00504691
0.00499848
0.00495801
0.0162309
0.0156583
0.0149607
0.0142003
0.0134314
0.0126661
0.0119585
0.0112938
0.0106893
0.0101664
0.00969709
0.00927863
0.00893318
0.00863845
0.00837624
0.00815567
0.0079745
0.00781612
0.0076732
0.00755173
0.00745345
0.0073651
0.00728216
0.00720396
0.00713982
0.00708131
0.00702375
0.00696641
0.00690966
0.00685823
0.0068083
0.00675784
0.00670429
0.00664817
0.00659296
0.00653418
0.00647114
0.00640662
0.0063443
0.00628887
0.0187631
0.0181836
0.0174802
0.0167099
0.0159253
0.0151341
0.0143898
0.0136811
0.013024
0.012441
0.0119094
0.0114302
0.0110258
0.010674
0.010355
0.0100842
0.00985922
0.00966055
0.00948005
0.00932519
0.00919559
0.00908011
0.00897219
0.00887114
0.00878498
0.00870744
0.00863286
0.00855832
0.00848394
0.00841773
0.00835327
0.00828808
0.00821981
0.00814901
0.00807941
0.00800645
0.00792905
0.00784997
0.00777281
0.00770138
0.0212575
0.020675
0.019971
0.0191981
0.0184067
0.0176023
0.0168352
0.0160964
0.0153982
0.014772
0.0141912
0.0136578
0.0132004
0.0127969
0.012427
0.0121086
0.0118417
0.0116028
0.0113837
0.0111926
0.0110316
0.0108886
0.0107541
0.0106269
0.0105187
0.0104205
0.0103252
0.0102326
0.0101401
0.0100571
0.00997634
0.00989394
0.00981048
0.00972452
0.00963989
0.00955205
0.00945967
0.00936543
0.00927282
0.00918484
0.0237109
0.0231281
0.0224274
0.0216567
0.0208627
0.0200552
0.0192763
0.0185188
0.0177929
0.0171328
0.0165114
0.0159362
0.0154349
0.0149861
0.0145701
0.0142068
0.0138964
0.0136181
0.013362
0.0131377
0.0129451
0.0127718
0.0126108
0.0124576
0.0123244
0.0122049
0.0120889
0.0119761
0.0118642
0.0117631
0.0116652
0.0115659
0.0114661
0.0113643
0.0112639
0.0111605
0.0110527
0.010943
0.0108347
0.0107301
0.0261202
0.0255396
0.0248451
0.0240812
0.0232909
0.0224843
0.0217001
0.0209317
0.020188
0.0195022
0.0188521
0.0182433
0.0177052
0.0172161
0.0167593
0.0163561
0.0160074
0.0156932
0.0154013
0.0151418
0.0149178
0.0147161
0.0145262
0.0143477
0.0141903
0.014047
0.0139098
0.013775
0.0136434
0.0135226
0.013408
0.0132919
0.0131757
0.0130587
0.0129416
0.0128222
0.0126988
0.0125736
0.0124498
0.0123291
0.028483
0.0279063
0.0272203
0.026466
0.0256836
0.0248822
0.0240975
0.0233224
0.0225704
0.0218683
0.0211968
0.0205599
0.0199912
0.0194716
0.0189813
0.0185432
0.0181594
0.0178091
0.0174832
0.0171927
0.0169386
0.0167068
0.0164896
0.0162837
0.0161025
0.0159363
0.0157775
0.0156212
0.0154677
0.0153286
0.0151963
0.0150622
0.0149293
0.0147959
0.0146628
0.0145279
0.0143893
0.0142491
0.0141105
0.0139749
0.0307975
0.030226
0.0295499
0.0288073
0.0280356
0.027243
0.0264627
0.0256874
0.0249311
0.0242191
0.0235331
0.0228763
0.0222839
0.021738
0.0212187
0.0207502
0.0203357
0.0199545
0.019597
0.0192747
0.0189925
0.018733
0.0184878
0.0182566
0.0180496
0.0178597
0.01768
0.0175032
0.0173293
0.0171713
0.017021
0.016869
0.0167187
0.0165688
0.01642
0.0162701
0.0161169
0.0159626
0.0158103
0.0156614
0.0330626
0.0324971
0.0318319
0.0311024
0.0303434
0.029562
0.0287894
0.0280184
0.0272621
0.0265447
0.0258493
0.0251792
0.0245691
0.0240013
0.0234564
0.0229615
0.0225202
0.022113
0.021728
0.0213774
0.0210665
0.0207816
0.0205112
0.0202553
0.020024
0.0198105
0.0196077
0.0194113
0.0192179
0.0190411
0.0188729
0.0187034
0.0185353
0.0183698
0.0182061
0.0180418
0.0178749
0.0177075
0.017543
0.0173831
0.0352781
0.0347183
0.0340646
0.0333492
0.0326042
0.0318361
0.0310737
0.0303099
0.0295574
0.0288385
0.0281364
0.0274592
0.0268365
0.026251
0.0256886
0.0251729
0.024708
0.0242743
0.0238634
0.0234885
0.0231519
0.022841
0.0225475
0.0222679
0.022014
0.0217784
0.0215533
0.0213377
0.0211253
0.0209291
0.0207442
0.0205583
0.020374
0.0201932
0.0200149
0.019837
0.0196572
0.0194781
0.0193033
0.0191352
0.0374389
0.0368876
0.0362466
0.0355463
0.0348164
0.0340629
0.0333126
0.0325586
0.0318129
0.0310962
0.0303927
0.029711
0.0290797
0.0284825
0.0279064
0.027374
0.0268896
0.0264338
0.0259989
0.0255987
0.0252376
0.0249048
0.0245887
0.024284
0.0240091
0.0237555
0.0235106
0.0232748
0.0230453
0.0228313
0.0226283
0.0224273
0.0222279
0.0220326
0.0218404
0.0216496
0.0214581
0.0212689
0.0210862
0.0209135
0.0395474
0.0390052
0.0383777
0.0376932
0.0369792
0.0362412
0.0355044
0.034762
0.0340253
0.0333139
0.0326123
0.0319292
0.0312911
0.0306875
0.0301018
0.0295566
0.0290562
0.0285816
0.0281245
0.0277039
0.0273212
0.0269651
0.0266276
0.0263037
0.0260093
0.0257374
0.0254738
0.0252192
0.0249727
0.0247417
0.024522
0.0243057
0.0240915
0.0238821
0.0236768
0.0234741
0.0232724
0.0230751
0.0228874
0.0227144
0.0416049
0.0410721
0.0404584
0.0397901
0.0390925
0.0383706
0.0376481
0.0369186
0.0361927
0.0354887
0.0347919
0.0341108
0.0334704
0.0328621
0.0322696
0.0317144
0.0312012
0.0307113
0.0302361
0.0297955
0.0293952
0.0290197
0.0286635
0.0283206
0.0280073
0.0277178
0.0274364
0.0271642
0.0269015
0.0266542
0.0264186
0.0261876
0.0259592
0.0257363
0.0255187
0.0253053
0.025095
0.024892
0.0247028
0.0245347
0.0436127
0.0430895
0.0424898
0.0418378
0.0411573
0.0404515
0.0397438
0.039028
0.0383141
0.0376192
0.0369294
0.0362527
0.035613
0.0350024
0.0344056
0.0338429
0.0333191
0.0328171
0.0323276
0.0318707
0.0314549
0.0310609
0.0306853
0.0303268
0.0299966
0.0296903
0.0293924
0.0291039
0.0288258
0.0285633
0.0283126
0.0280675
0.0278255
0.0275901
0.0273612
0.0271386
0.0269216
0.0267156
0.026529
0.0263718
0.0455724
0.045059
0.044473
0.0438376
0.0431753
0.0424848
0.0417919
0.0410904
0.0403894
0.0397049
0.0390236
0.0383532
0.0377163
0.0371058
0.0365069
0.035939
0.0354055
0.0348947
0.034394
0.0339234
0.0334912
0.0330834
0.0326923
0.0323188
0.0319725
0.0316489
0.0313367
0.0310333
0.0307409
0.0304639
0.030199
0.0299407
0.029686
0.0294386
0.0291999
0.0289696
0.0287482
0.0285424
0.0283629
0.0282235
0.0474864
0.0469826
0.0464101
0.0457903
0.0451445
0.0444707
0.0437933
0.0431066
0.0424191
0.041746
0.0410746
0.040412
0.0397795
0.0391708
0.0385719
0.0380014
0.0374622
0.0369421
0.0364329
0.0359512
0.035506
0.0350848
0.0346795
0.0342922
0.0339313
0.0335927
0.0332663
0.0329487
0.0326422
0.0323518
0.0320739
0.0318032
0.0315366
0.0312773
0.0310308
0.030795
0.0305715
0.0303693
0.0302021
0.0300883
0.0493574
0.0488633
0.0483038
0.0476991
0.047069
0.0464116
0.0457498
0.0450781
0.0444045
0.0437437
0.0430833
0.0424293
0.0418028
0.0411969
0.0405993
0.0400282
0.0394875
0.0389617
0.038443
0.0379512
0.0374958
0.0370617
0.0366435
0.0362432
0.0358693
0.0355172
0.0351778
0.0348466
0.0345256
0.0342235
0.0339339
0.0336519
0.0333746
0.0331058
0.0328519
0.0326118
0.0323886
0.0321936
0.0320442
0.0319647
0.0511887
0.050704
0.0501573
0.0495674
0.048952
0.0483103
0.0476639
0.0470074
0.0463476
0.0456991
0.0450517
0.0444062
0.0437876
0.0431843
0.0425887
0.0420177
0.0414751
0.0409453
0.0404204
0.0399202
0.0394536
0.0390104
0.0385811
0.038168
0.0377835
0.0374197
0.0370684
0.0367249
0.0363914
0.0360776
0.0357766
0.035484
0.0351972
0.0349203
0.0346603
0.0344174
0.0341968
0.0340128
0.0338873
0.0338516
0.0529836
0.0525081
0.0519739
0.0513991
0.0507968
0.0501698
0.0495385
0.0488981
0.0482505
0.0476137
0.0469776
0.046342
0.0457309
0.0451327
0.0445404
0.0439704
0.0434265
0.0428939
0.0423645
0.0418578
0.0413829
0.0409309
0.040492
0.0400684
0.0396735
0.0392987
0.0389363
0.0385814
0.0382365
0.0379116
0.0375999
0.0372974
0.0370019
0.0367191
0.0364533
0.0362089
0.0359935
0.0358246
0.0357296
0.035748
0.054746
0.0542792
0.0537566
0.0531947
0.0526058
0.0519932
0.0513761
0.0507498
0.0501154
0.0494904
0.0488654
0.0482399
0.0476366
0.0470443
0.0464561
0.0458878
0.0453432
0.0448083
0.0442756
0.0437639
0.0432821
0.0428226
0.0423752
0.0419424
0.0415378
0.0411527
0.04078
0.0404145
0.0400589
0.0397237
0.0394018
0.0390899
0.0387863
0.0384973
0.0382276
0.0379839
0.0377764
0.037627
0.0375695
0.0376531
0.0564796
0.0560213
0.0555107
0.0549593
0.054383
0.0537844
0.053181
0.0525677
0.0519462
0.0513329
0.0507186
0.0501033
0.0495081
0.0489224
0.0483385
0.0477721
0.0472269
0.0466897
0.0461547
0.0456389
0.0451515
0.0446852
0.0442303
0.0437893
0.0433758
0.0429811
0.0425986
0.0422233
0.0418578
0.0415127
0.0411811
0.0408603
0.0405491
0.0402543
0.039982
0.0397407
0.0395439
0.0394184
0.0394057
0.0395661
0.0581884
0.0577379
0.0572368
0.0566966
0.0561325
0.0555473
0.0549582
0.0543561
0.0537468
0.053145
0.0525412
0.0519359
0.0513487
0.0507709
0.0501907
0.0496258
0.0490798
0.0485394
0.048003
0.0474841
0.0469917
0.0465195
0.0460578
0.0456093
0.0451875
0.0447838
0.044392
0.0440073
0.0436325
0.043278
0.0429372
0.042608
0.0422896
0.0419896
0.0417155
0.0414782
0.0412947
0.0411975
0.0412368
0.0414861
0.0598766
0.0594344
0.0589409
0.0584108
0.0578582
0.0572856
0.0567084
0.0561182
0.0555209
0.0549315
0.0543367
0.053742
0.0531608
0.0525891
0.0520154
0.0514518
0.0509052
0.0503624
0.0498236
0.0493014
0.0488042
0.0483265
0.0478586
0.0474032
0.0469735
0.046561
0.0461601
0.0457669
0.0453834
0.0450199
0.0446702
0.0443327
0.0440074
0.0437027
0.0434277
0.0431956
0.0430278
0.0429631
0.0430617
0.0434118
0.0615473
0.0611117
0.0606264
0.0601062
0.0595647
0.0590049
0.0584373
0.0578581
0.0572722
0.0566927
0.0561073
0.0555214
0.0549474
0.0543809
0.0538119
0.0532523
0.0527057
0.0521596
0.051618
0.0510924
0.0505909
0.050108
0.0496342
0.0491723
0.0487351
0.0483141
0.0479032
0.0475031
0.0471114
0.046739
0.0463805
0.0460349
0.0457028
0.0453937
0.0451183
0.0448927
0.0447427
0.0447144
0.0448793
0.0453419
0.0632053
0.0627753
0.0622979
0.061787
0.0612557
0.0607061
0.0601486
0.0595801
0.059006
0.0584345
0.0578577
0.0572797
0.0567137
0.0561509
0.0555849
0.0550264
0.0544789
0.0539315
0.0533879
0.0528594
0.0523536
0.0518659
0.0513866
0.0509184
0.0504741
0.050045
0.0496256
0.0492174
0.0488174
0.0484362
0.0480689
0.0477153
0.0473764
0.0470631
0.0467877
0.0465693
0.0464389
0.0464505
0.0466882
0.0472746
0.0648542
0.0644294
0.0639594
0.0634577
0.0629366
0.0623949
0.0618465
0.0612879
0.0607232
0.0601603
0.0595928
0.0590205
0.0584599
0.0579027
0.0573394
0.0567795
0.0562288
0.0556809
0.0551359
0.0546047
0.054095
0.0536026
0.0531179
0.0526438
0.0521926
0.0517557
0.0513281
0.0509116
0.0505032
0.0501131
0.049737
0.0493749
0.0490292
0.0487115
0.0484363
0.0482258
0.0481163
0.0481709
0.0484872
0.0492078
0.0664975
0.0660774
0.0656143
0.0651219
0.0646078
0.0640744
0.0635349
0.0629866
0.0624292
0.0618739
0.0613135
0.0607473
0.060191
0.0596363
0.0590744
0.0585154
0.0579619
0.0574121
0.0568652
0.0563314
0.0558179
0.0553208
0.0548309
0.0543509
0.0538928
0.0534484
0.0530127
0.0525879
0.0521708
0.0517717
0.0513863
0.0510153
0.0506621
0.0503404
0.0500654
0.0498629
0.0497753
0.0498751
0.0502749
0.0511388
0.068138
0.0677221
0.0672654
0.0667799
0.0662732
0.065748
0.0652168
0.0646766
0.0641274
0.0635802
0.0630251
0.0624652
0.0619121
0.0613574
0.060795
0.0602333
0.0596792
0.0591279
0.0585791
0.0580424
0.0575251
0.0570233
0.0565283
0.0560424
0.0555775
0.0551254
0.0546816
0.0542484
0.0538225
0.053414
0.053019
0.0526379
0.0522779
0.0519516
0.0516764
0.0514818
0.0514163
0.0515627
0.0520499
0.0530648
0.0697778
0.069366
0.0689162
0.0684358
0.0679361
0.067419
0.0668964
0.0663622
0.065821
0.0652789
0.0647302
0.0641733
0.0636224
0.0630694
0.0625056
0.0619407
0.0613845
0.0608313
0.0602804
0.0597409
0.0592197
0.0587133
0.058213
0.0577212
0.0572493
0.0567896
0.0563376
0.0558957
0.0554607
0.0550427
0.0546378
0.0542472
0.0538793
0.0535475
0.0532712
0.0530837
0.0530399
0.0532336
0.0538107
0.0549827
0.0714185
0.0710099
0.0705653
0.0700913
0.0695989
0.0690901
0.0685732
0.0680453
0.06751
0.066973
0.0664286
0.0658758
0.0653258
0.0647715
0.0642037
0.063638
0.0630803
0.0625253
0.0619722
0.0614298
0.0609047
0.0603936
0.0598879
0.0593901
0.0589112
0.0584436
0.0579832
0.0575324
0.0570881
0.0566601
0.0562453
0.0558449
0.0554683
0.0551301
0.0548517
0.0546701
0.0546471
0.0548877
0.0555559
0.056889
0.0730613
0.0726555
0.0722155
0.071748
0.0712632
0.0707601
0.0702497
0.069729
0.0691982
0.0686666
0.0681247
0.067572
0.0670209
0.0664633
0.065895
0.0653284
0.0647693
0.0642125
0.0636573
0.063112
0.0625829
0.0620669
0.0615559
0.0610519
0.0605658
0.0600902
0.0596212
0.0591611
0.0587072
0.058269
0.0578437
0.0574331
0.0570471
0.0567016
0.0564198
0.0562427
0.0562388
0.0565251
0.0572841
0.0587803
0.0747067
0.0743032
0.0738675
0.0734068
0.0729272
0.0724306
0.0719275
0.0714118
0.0708868
0.0703581
0.0698168
0.0692654
0.0687126
0.0681518
0.0675821
0.0670145
0.0664539
0.0658954
0.0653381
0.0647898
0.0642568
0.0637361
0.0632195
0.0627093
0.0622158
0.061732
0.0612541
0.0607845
0.0603204
0.0598716
0.0594355
0.0590143
0.0586183
0.0582643
0.0579777
0.0578033
0.0578165
0.058146
0.0589941
0.0606532
0.0763548
0.0759531
0.0755207
0.0750651
0.0745918
0.0741027
0.0736047
0.0730952
0.0725738
0.0720459
0.0715065
0.0709543
0.0703975
0.0698364
0.0692664
0.068698
0.0681362
0.0675761
0.0670167
0.0664657
0.0659288
0.0654032
0.0648811
0.0643645
0.0638635
0.0633714
0.0628844
0.0624049
0.0619297
0.0614705
0.0610234
0.060591
0.0601841
0.0598206
0.0595277
0.0593538
0.0593813
0.0597509
0.0606848
0.0625046
0.078005
0.0776048
0.0771751
0.0767239
0.0762573
0.0757734
0.0752821
0.074777
0.0742574
0.0737315
0.073192
0.0726368
0.0720802
0.0715192
0.0709493
0.0703805
0.0698177
0.0692561
0.0686949
0.0681413
0.0676008
0.0670705
0.0665427
0.0660196
0.065511
0.0650104
0.0645142
0.0640248
0.0635389
0.0630684
0.0626097
0.0621656
0.0617471
0.0613729
0.061072
0.0608962
0.0609348
0.0613404
0.0623556
0.0643316
0.0796562
0.0792574
0.07883
0.0783821
0.0779202
0.0774431
0.0769569
0.076455
0.0759391
0.0754125
0.0748715
0.0743177
0.0737618
0.0732014
0.0726319
0.0720631
0.0714995
0.0709367
0.0703739
0.0698181
0.0692746
0.0687393
0.0682058
0.0676761
0.0671599
0.0666507
0.0661453
0.0656458
0.0651492
0.0646672
0.0641965
0.0637402
0.0633098
0.0629236
0.0626128
0.0624325
0.0624785
0.0629153
0.0640058
0.0661319
0.0813069
0.0809095
0.0804842
0.0800392
0.0795808
0.079108
0.0786263
0.0781299
0.0776175
0.0770908
0.0765503
0.0759977
0.0754429
0.0748834
0.0743147
0.0737462
0.0731822
0.0726185
0.0720543
0.0714967
0.0709516
0.0704106
0.0698711
0.069335
0.0688112
0.0682937
0.067779
0.0672695
0.066762
0.0662684
0.0657855
0.0653167
0.0648747
0.0644747
0.0641518
0.0639645
0.064014
0.0644767
0.0656354
0.0679035
0.0829554
0.0825595
0.0821365
0.0816942
0.0812389
0.0807695
0.0802914
0.0797988
0.0792899
0.0787655
0.078227
0.0776765
0.0771233
0.0765651
0.0759977
0.0754298
0.0748657
0.0743014
0.0737362
0.0731767
0.0726289
0.0720837
0.071539
0.0709969
0.0704659
0.0699401
0.0694163
0.0688967
0.0683784
0.067873
0.0673777
0.0668959
0.0664406
0.0660265
0.0656905
0.0654936
0.0655429
0.0660255
0.0672445
0.0696452
0.0845993
0.0842054
0.0837849
0.0833456
0.0828933
0.0824272
0.0819524
0.0814633
0.0809578
0.0804366
0.079901
0.0793532
0.0788023
0.078246
0.0776802
0.0771135
0.0765497
0.0759852
0.0754193
0.0748582
0.0743078
0.0737588
0.0732096
0.072662
0.0721242
0.0715903
0.0710575
0.0705279
0.0699989
0.0694819
0.0689741
0.0684791
0.0680097
0.0675809
0.0672305
0.0670217
0.0670667
0.0675631
0.0688337
0.0713561
0.0862364
0.0858448
0.0854273
0.0849912
0.0845423
0.0840798
0.0836084
0.0831229
0.082621
0.0821034
0.0815714
0.0810269
0.0804788
0.0799248
0.0793613
0.0787961
0.0782332
0.0776691
0.077103
0.076541
0.0759881
0.0754358
0.0748826
0.0743305
0.073786
0.0732443
0.0727027
0.0721631
0.0716236
0.0710954
0.0705753
0.0700671
0.0695833
0.0691393
0.0687732
0.0685503
0.068587
0.0690908
0.0704037
0.0730361
0.0878642
0.0874753
0.0870612
0.0866288
0.0861838
0.0857251
0.0852576
0.0847759
0.0842781
0.0837646
0.0832365
0.0826959
0.0821511
0.0816002
0.0810393
0.0804763
0.0799149
0.0793517
0.0787862
0.0782242
0.0776692
0.0771139
0.0765573
0.0760023
0.0754506
0.0749013
0.0743514
0.0738011
0.0732524
0.0727135
0.0721817
0.0716605
0.0711623
0.0707026
0.0703198
0.0700805
0.0701052
0.07061
0.0719557
0.0746854
0.0894801
0.0890945
0.0886842
0.0882561
0.0878153
0.0873611
0.0868978
0.0864205
0.0859272
0.0854182
0.0848946
0.0843584
0.0838176
0.0832701
0.0827126
0.0821524
0.0815931
0.0810315
0.0804674
0.0799073
0.0793497
0.0787915
0.0782317
0.077673
0.0771158
0.07656
0.0760037
0.0754436
0.0748854
0.0743361
0.073793
0.0732593
0.072747
0.0722713
0.0718709
0.0716134
0.0716224
0.072122
0.0734907
0.0763046
0.0910818
0.0906999
0.0902941
0.0898707
0.0894347
0.0889854
0.0885269
0.0880545
0.0875662
0.0870622
0.0865436
0.0860124
0.0854761
0.0849327
0.0843792
0.0838224
0.0832658
0.0827065
0.0821441
0.081585
0.0810266
0.0804667
0.0799044
0.0793423
0.0787804
0.0782185
0.0776541
0.0770874
0.0765211
0.0759625
0.0754088
0.0748636
0.0743373
0.0738455
0.0734269
0.0731496
0.0731396
0.073628
0.07501
0.0778948
0.092667
0.0922893
0.0918883
0.0914701
0.0910395
0.0905956
0.0901424
0.0896754
0.0891927
0.0886942
0.0881813
0.0876556
0.0871244
0.0865857
0.0860368
0.0854841
0.084931
0.0843747
0.0838149
0.083257
0.0826986
0.0821378
0.0815739
0.081009
0.0804432
0.0798761
0.0793055
0.0787323
0.0781586
0.0775914
0.0770282
0.0764733
0.0759326
0.0754247
0.0749874
0.0746891
0.0746573
0.0751289
0.0765149
0.0794572
0.0942336
0.0938605
0.0934648
0.0930523
0.0926274
0.0921895
0.0917421
0.0912811
0.0908045
0.0903122
0.0898054
0.0892858
0.0887602
0.088227
0.0876833
0.0871354
0.0865866
0.0860343
0.0854781
0.0849217
0.0843639
0.083803
0.0832387
0.0826715
0.0821023
0.081531
0.0809553
0.0803765
0.0797964
0.0792215
0.0786494
0.0780842
0.0775308
0.0770076
0.076552
0.0762319
0.0761758
0.0766256
0.0780064
0.0809929
0.0957796
0.0954116
0.0950216
0.0946152
0.0941965
0.093765
0.093324
0.0928694
0.0923995
0.0919139
0.0914138
0.0909008
0.0903815
0.0898542
0.0893164
0.0887741
0.0882304
0.0876832
0.0871324
0.0865771
0.0860201
0.0854599
0.0848973
0.0843276
0.0837556
0.0831809
0.0826014
0.0820181
0.0814327
0.0808512
0.080271
0.079696
0.0791309
0.0785932
0.0781197
0.0777774
0.0776952
0.0781186
0.0794858
0.0825035
0.0973033
0.0969407
0.0965568
0.0961569
0.0957449
0.0953202
0.094886
0.0944384
0.0939756
0.0934973
0.0930044
0.0924986
0.0919861
0.0914654
0.0909341
0.090398
0.0898603
0.0893188
0.0887724
0.0882198
0.0876646
0.0871057
0.0865439
0.0859738
0.0854004
0.0848234
0.0842413
0.0836551
0.0830661
0.0824788
0.0818912
0.0813074
0.0807316
0.0801805
0.0796897
0.0793251
0.0792153
0.0796083
0.080954
0.0839903
0.0988032
0.0984464
0.0980689
0.0976758
0.0972709
0.0968534
0.0964264
0.0959863
0.0955312
0.0950606
0.0945754
0.0940772
0.093572
0.0930584
0.0925342
0.0920051
0.0914741
0.0909402
0.0903972
0.0898479
0.0892952
0.0887383
0.0881777
0.0876083
0.0870347
0.086456
0.0858731
0.0852855
0.0846954
0.0841025
0.0835079
0.0829166
0.0823313
0.0817679
0.0812606
0.0808741
0.0807357
0.0810949
0.0824117
0.0854546
0.100278
0.0999272
0.0995565
0.0991706
0.0987729
0.098363
0.0979436
0.0975114
0.0970645
0.0966023
0.0961252
0.0956349
0.0951374
0.0946314
0.094115
0.0935933
0.0930694
0.0925421
0.0920042
0.0914592
0.0909101
0.0903558
0.0897968
0.0892293
0.0886569
0.0880785
0.0874952
0.0869073
0.0863154
0.085719
0.0851196
0.0845221
0.0839285
0.083354
0.0828313
0.0824232
0.0822556
0.0825781
0.0838596
0.0868977
0.101727
0.101382
0.101018
0.10064
0.10025
0.0998477
0.0994363
0.0990123
0.0985742
0.0981211
0.0976521
0.09717
0.0966806
0.0961828
0.0956746
0.0951613
0.0946454
0.0941242
0.093592
0.0930521
0.0925075
0.0919566
0.0913988
0.090835
0.090265
0.0896885
0.0891068
0.0885193
0.0879262
0.0873273
0.0867243
0.0861218
0.0855213
0.084937
0.0843999
0.0839712
0.0837741
0.0840578
0.0852981
0.0883206
0.103148
0.10281
0.102454
0.102083
0.101701
0.101306
0.100903
0.100488
0.100059
0.0996163
0.0991547
0.098681
0.0982001
0.0977109
0.0972117
0.0967074
0.0962011
0.0956854
0.095159
0.094625
0.0940859
0.0935394
0.0929852
0.0924247
0.0918574
0.0912839
0.0907063
0.0901199
0.0895255
0.088925
0.0883198
0.0877137
0.0871078
0.086515
0.085965
0.0855164
0.08529
0.0855333
0.0867272
0.0897243
0.104542
0.104211
0.103861
0.103498
0.103124
0.102738
0.102343
0.101936
0.101516
0.101083
0.100631
0.100166
0.0996945
0.0992146
0.0987249
0.0982301
0.0977318
0.097223
0.0967035
0.0961764
0.095644
0.0951028
0.0945529
0.0939962
0.0934316
0.0928621
0.0922882
0.091704
0.0911099
0.0905096
0.0899042
0.0892961
0.088686
0.0880861
0.0875245
0.0870574
0.0868022
0.0870039
0.0881471
0.0911095
0.105907
0.105583
0.105241
0.104886
0.10452
0.104143
0.103756
0.103358
0.102947
0.102523
0.10208
0.101625
0.101163
0.100693
0.100213
0.0997292
0.0992376
0.0987359
0.0982239
0.0977046
0.0971812
0.0966449
0.0960999
0.0955478
0.0949874
0.0944222
0.0938522
0.0932712
0.0926795
0.0920807
0.0914765
0.0908674
0.0902543
0.0896486
0.0890766
0.0885922
0.0883091
0.0884685
0.0895574
0.0924768
0.107243
0.106926
0.106592
0.106245
0.105887
0.105519
0.105141
0.104751
0.104349
0.103935
0.103502
0.103056
0.102604
0.102144
0.101675
0.1012
0.100717
0.100223
0.0997192
0.0992082
0.0986926
0.0981631
0.0976241
0.0970774
0.0965226
0.0959626
0.0953972
0.0948204
0.0942322
0.0936364
0.0930355
0.0924256
0.0918103
0.0912001
0.0906194
0.0901191
0.0898091
0.0899262
0.0909578
0.0938266
0.10855
0.108241
0.107914
0.107576
0.107226
0.106866
0.106497
0.106116
0.105723
0.105318
0.104895
0.10446
0.104018
0.103569
0.103111
0.102644
0.102168
0.101683
0.101188
0.100687
0.100179
0.0996568
0.0991246
0.0985833
0.0980357
0.0974821
0.0969222
0.0963502
0.0957663
0.0951742
0.0945763
0.0939676
0.0933519
0.0927387
0.0921507
0.0916363
0.0913007
0.0913758
0.0923479
0.0951592
0.109828
0.109526
0.109207
0.108877
0.108536
0.108184
0.107824
0.107452
0.107069
0.106674
0.10626
0.105835
0.105404
0.104967
0.104517
0.104058
0.103592
0.103116
0.102631
0.10214
0.10164
0.101125
0.1006
0.100067
0.0995265
0.0989798
0.0984259
0.0978594
0.0972804
0.0966927
0.0960983
0.0954921
0.0948772
0.0942624
0.0936689
0.0931418
0.0927823
0.092816
0.093727
0.0964749
0.111076
0.110781
0.110471
0.110148
0.109816
0.109473
0.109122
0.108759
0.108386
0.108
0.107597
0.107182
0.10676
0.106333
0.105893
0.105444
0.104987
0.10452
0.104046
0.103565
0.103073
0.102567
0.102051
0.101526
0.100994
0.100455
0.0999073
0.0993463
0.0987729
0.0981909
0.0976006
0.0969976
0.0963846
0.0957696
0.095172
0.0946342
0.0942523
0.0942458
0.0950946
0.0977739
0.112295
0.112007
0.111705
0.111391
0.111067
0.110733
0.11039
0.110037
0.109673
0.109297
0.108905
0.1085
0.108087
0.107669
0.107239
0.1068
0.106353
0.105897
0.105434
0.104961
0.104478
0.103983
0.103475
0.102959
0.102438
0.101907
0.101365
0.100809
0.100242
0.0996679
0.0990818
0.0984826
0.0978726
0.0972588
0.0966587
0.0961118
0.0957095
0.0956639
0.09645
0.0990562
0.113483
0.113203
0.112909
0.112603
0.112288
0.111963
0.111629
0.111286
0.110931
0.110566
0.110184
0.109789
0.109385
0.108974
0.108556
0.108127
0.10769
0.107244
0.106791
0.106327
0.105854
0.105369
0.104871
0.104367
0.103853
0.10333
0.102795
0.102247
0.101687
0.101119
0.100539
0.0999454
0.0993398
0.0987285
0.0981275
0.0975734
0.0971524
0.0970694
0.0977928
0.100322
0.114643
0.11437
0.114084
0.113786
0.11348
0.113164
0.112839
0.112505
0.11216
0.111805
0.111435
0.111049
0.110655
0.110253
0.109844
0.109426
0.108998
0.108562
0.108119
0.107665
0.107201
0.106726
0.106239
0.105745
0.10524
0.104725
0.104198
0.103657
0.103105
0.102545
0.101973
0.101385
0.100785
0.100178
0.0995773
0.0990176
0.0985799
0.0984613
0.0991222
0.101571
0.115772
0.115507
0.115229
0.11494
0.114642
0.114335
0.114019
0.113694
0.113359
0.113014
0.112655
0.112279
0.111895
0.111503
0.111104
0.110696
0.110278
0.109851
0.109417
0.108973
0.10852
0.108055
0.107579
0.107094
0.106599
0.106092
0.105573
0.105042
0.104498
0.103947
0.103382
0.102802
0.102208
0.101606
0.101007
0.100444
0.0999911
0.0998386
0.100438
0.102804
0.116873
0.116615
0.116345
0.116065
0.115775
0.115477
0.11517
0.114854
0.114528
0.114193
0.113845
0.11348
0.113106
0.112724
0.112335
0.111937
0.111529
0.111112
0.110686
0.110253
0.10981
0.109356
0.10889
0.108415
0.107929
0.107432
0.106922
0.1064
0.105865
0.105323
0.104766
0.104195
0.103609
0.103012
0.102416
0.10185
0.101385
0.101201
0.101739
0.104019
0.117944
0.117694
0.117432
0.11716
0.116879
0.116589
0.116292
0.115985
0.115669
0.115344
0.115005
0.114651
0.114288
0.113916
0.113537
0.113149
0.112752
0.112345
0.111928
0.111505
0.111072
0.110628
0.110173
0.109708
0.109232
0.108744
0.108244
0.107732
0.107207
0.106674
0.106127
0.105564
0.104986
0.104396
0.103804
0.103237
0.102761
0.102547
0.103025
0.105217
0.118987
0.118744
0.11849
0.118226
0.117954
0.117673
0.117385
0.117087
0.11678
0.116465
0.116137
0.115794
0.115441
0.11508
0.11471
0.114332
0.113946
0.113549
0.113142
0.112729
0.112306
0.111873
0.111428
0.110972
0.110506
0.110029
0.10954
0.109037
0.108523
0.108
0.107462
0.106908
0.106339
0.105757
0.10517
0.104604
0.104118
0.103876
0.104296
0.106397
0.120001
0.119766
0.11952
0.119264
0.119001
0.118728
0.118449
0.11816
0.117863
0.117557
0.11724
0.116909
0.116566
0.116215
0.115854
0.115487
0.115111
0.114725
0.114328
0.113924
0.113512
0.11309
0.112656
0.11221
0.111754
0.111287
0.110808
0.110316
0.109813
0.109301
0.108773
0.108229
0.107668
0.107094
0.106514
0.105949
0.105456
0.105188
0.10555
0.107561
0.120986
0.120759
0.120521
0.120274
0.120019
0.119755
0.119484
0.119205
0.118918
0.118622
0.118315
0.117996
0.117663
0.117321
0.116971
0.116614
0.116248
0.115873
0.115487
0.115092
0.114691
0.114279
0.113856
0.113421
0.112975
0.112518
0.11205
0.11157
0.11108
0.110577
0.110059
0.109524
0.108973
0.108408
0.107835
0.107272
0.106773
0.106481
0.106789
0.108707
0.121944
0.121725
0.121494
0.121255
0.121009
0.120754
0.120492
0.120222
0.119944
0.119657
0.119361
0.119053
0.118731
0.1184
0.118059
0.117713
0.117358
0.116993
0.116618
0.116233
0.115842
0.115441
0.115028
0.114604
0.114169
0.113723
0.113266
0.112797
0.112319
0.111826
0.111319
0.110794
0.110254
0.109697
0.109132
0.108574
0.10807
0.107756
0.108011
0.109835
0.122875
0.122663
0.12244
0.12221
0.121971
0.121725
0.121472
0.121211
0.120942
0.120665
0.120379
0.120082
0.119771
0.11945
0.11912
0.118784
0.118439
0.118085
0.117721
0.117347
0.116965
0.116575
0.116174
0.115761
0.115337
0.114902
0.114456
0.113999
0.113532
0.11305
0.112553
0.11204
0.111509
0.110963
0.110406
0.109852
0.109345
0.109013
0.109216
0.110946
0.123779
0.123574
0.123359
0.123137
0.122907
0.122669
0.122425
0.122173
0.121913
0.121646
0.121369
0.121083
0.120784
0.120473
0.120154
0.119827
0.119493
0.11915
0.118797
0.118434
0.118063
0.117683
0.117292
0.11689
0.116478
0.116054
0.11562
0.115176
0.114719
0.114248
0.113762
0.113259
0.11274
0.112203
0.111655
0.111108
0.1106
0.110249
0.110403
0.11204
0.124656
0.124458
0.124251
0.124037
0.123815
0.123586
0.123351
0.123108
0.122857
0.122599
0.122333
0.122057
0.12177
0.12147
0.12116
0.120843
0.12052
0.120188
0.119846
0.119494
0.119133
0.118764
0.118384
0.117993
0.117592
0.11718
0.116757
0.116325
0.11588
0.11542
0.114946
0.114454
0.113945
0.11342
0.112881
0.11234
0.111832
0.111466
0.111573
0.113115
0.125507
0.125316
0.125117
0.124911
0.124697
0.124477
0.12425
0.124016
0.123774
0.123526
0.123269
0.123004
0.122728