/*--------------------------------*- C++ -*----------------------------------*\
| =========                 |                                                 |
| \\      /  F ield         | OpenFOAM: The Open Source CFD Toolbox           |
|  \\    /   O peration     | Version:  3.0.1                                 |
|   \\  /    A nd           | Web:      www.OpenFOAM.org                      |
|    \\/     M anipulation  |                                                 |
\*---------------------------------------------------------------------------*/
FoamFile
{
    version     2.0;
    format      ascii;
    class       volScalarField;
    location    "200";
    object      p;
}
// * * * * * * * * * * * * * * * * * * * * * * * * * * * * * * * * * * * * * //

dimensions      [0 2 -2 0 0 0 0];

internalField   nonuniform List<scalar> 
58000
(
0.151732
-0.113531
-0.335165
-0.476286
-0.561491
-0.622367
-0.665443
-0.695266
-0.71542
-0.725448
-0.729376
-0.729197
-0.724584
-0.717903
-0.711261
-0.704678
-0.697573
-0.690947
-0.684974
-0.679103
-0.67274
-0.666705
-0.661146
-0.655662
-0.649717
-0.643435
-0.637579
-0.631956
-0.626223
-0.620139
-0.613881
-0.608025
-0.602408
-0.596782
-0.590964
-0.583836
-0.57333
-0.562246
-0.553754
-0.547652
0.312196
0.205857
0.0856645
-0.0421555
-0.160435
-0.262785
-0.347638
-0.422835
-0.484438
-0.532645
-0.57104
-0.599175
-0.617947
-0.630687
-0.638151
-0.641075
-0.6414
-0.640187
-0.637785
-0.63446
-0.63062
-0.626574
-0.622205
-0.617553
-0.612561
-0.607675
-0.602674
-0.597501
-0.592136
-0.586581
-0.581218
-0.575823
-0.570304
-0.564583
-0.558615
-0.552458
-0.545541
-0.53852
-0.5333
-0.530962
0.229168
0.153161
0.0719173
-0.0172541
-0.105369
-0.189637
-0.266604
-0.334762
-0.395937
-0.446402
-0.488242
-0.522595
-0.548307
-0.567001
-0.580933
-0.590386
-0.596043
-0.59918
-0.600614
-0.600688
-0.599614
-0.597681
-0.595156
-0.592197
-0.588888
-0.585195
-0.581161
-0.576899
-0.57244
-0.567884
-0.563162
-0.558246
-0.553187
-0.547975
-0.54265
-0.537183
-0.531427
-0.525561
-0.520117
-0.515089
0.215652
0.166677
0.111695
0.0476045
-0.0212103
-0.0920827
-0.161102
-0.226283
-0.287267
-0.340582
-0.387644
-0.428537
-0.46151
-0.487843
-0.509365
-0.525698
-0.537345
-0.545765
-0.551768
-0.555594
-0.557587
-0.558282
-0.55801
-0.556922
-0.555116
-0.552763
-0.54995
-0.546743
-0.543165
-0.539318
-0.535291
-0.531027
-0.526542
-0.521831
-0.516952
-0.512007
-0.506978
-0.501888
-0.496914
-0.492153
0.181884
0.146378
0.107948
0.06242
0.0114726
-0.0439952
-0.101538
-0.158237
-0.214183
-0.26535
-0.312224
-0.354832
-0.390938
-0.421023
-0.446871
-0.467829
-0.483855
-0.496365
-0.506192
-0.513462
-0.5184
-0.521616
-0.523593
-0.524497
-0.524443
-0.523535
-0.522006
-0.519953
-0.517416
-0.514522
-0.511287
-0.507741
-0.503917
-0.49983
-0.49557
-0.491202
-0.486733
-0.48215
-0.477481
-0.472735
0.159759
0.132051
0.102717
0.0682434
0.0293487
-0.0140054
-0.0608718
-0.108614
-0.15771
-0.204464
-0.248824
-0.290648
-0.327564
-0.359508
-0.38797
-0.412049
-0.431353
-0.447159
-0.460201
-0.470462
-0.478072
-0.483687
-0.487841
-0.490687
-0.492307
-0.492842
-0.492617
-0.491738
-0.490246
-0.488257
-0.485817
-0.483001
-0.479848
-0.476376
-0.472672
-0.468813
-0.464825
-0.460679
-0.456366
-0.45192
0.140022
0.117553
0.0942246
0.0670637
0.0364748
0.00210689
-0.0360085
-0.0756286
-0.117695
-0.15907
-0.199438
-0.238706
-0.274611
-0.306631
-0.336007
-0.361738
-0.383113
-0.401215
-0.416668
-0.429337
-0.439212
-0.446924
-0.453035
-0.457676
-0.460907
-0.462845
-0.463897
-0.464177
-0.463731
-0.462674
-0.461048
-0.458978
-0.456508
-0.453663
-0.450532
-0.447187
-0.443663
-0.439934
-0.435973
-0.43182
0.12391
0.104972
0.0856197
0.0633666
0.0385018
0.0106005
-0.0207508
-0.0536946
-0.0894565
-0.125495
-0.161427
-0.197277
-0.231042
-0.261925
-0.290952
-0.317121
-0.339504
-0.35898
-0.376048
-0.390469
-0.402109
-0.411534
-0.419303
-0.425509
-0.430179
-0.433403
-0.435643
-0.437013
-0.437563
-0.437395
-0.436556
-0.43521
-0.433402
-0.431165
-0.428584
-0.425727
-0.422647
-0.419318
-0.415712
-0.411884
0.110367
0.0940113
0.0774864
0.0586903
0.0378815
0.0146615
-0.0115655
-0.0392405
-0.0696999
-0.100935
-0.13258
-0.164778
-0.195853
-0.224875
-0.252708
-0.278427
-0.300971
-0.321025
-0.338979
-0.354527
-0.367425
-0.37815
-0.387233
-0.394725
-0.400622
-0.404974
-0.408275
-0.410634
-0.412096
-0.412758
-0.412661
-0.411999
-0.410822
-0.409163
-0.407106
-0.404718
-0.40206
-0.399113
-0.395851
-0.392346
0.0989471
0.0845433
0.0701128
0.0538558
0.0360167
0.0162474
-0.00608598
-0.0296572
-0.0558045
-0.0829307
-0.110718
-0.139411
-0.167649
-0.194476
-0.220631
-0.245304
-0.267387
-0.287402
-0.305645
-0.321773
-0.335457
-0.34708
-0.357127
-0.365608
-0.372496
-0.37779
-0.381997
-0.385215
-0.387484
-0.388891
-0.389468
-0.389434
-0.388839
-0.387717
-0.386149
-0.384196
-0.381933
-0.379346
-0.37641
-0.373212
0.0892309
0.0763577
0.0635419
0.0492199
0.0336275
0.0164694
-0.00286796
-0.0232356
-0.0459083
-0.0696042
-0.0940591
-0.119577
-0.14507
-0.169626
-0.193886
-0.21717
-0.238383
-0.257919
-0.275997
-0.292261
-0.306326
-0.318485
-0.329173
-0.338359
-0.345997
-0.352038
-0.356984
-0.360921
-0.363877
-0.365932
-0.367105
-0.367632
-0.367559
-0.366922
-0.365796
-0.364242
-0.36234
-0.360083
-0.357449
-0.354542
0.080905
0.0692664
0.057734
0.0449356
0.0310973
0.0159675
-0.00102045
-0.0188604
-0.0387346
-0.059592
-0.0812192
-0.103949
-0.126917
-0.149282
-0.171614
-0.19335
-0.213453
-0.232218
-0.249807
-0.26587
-0.279991
-0.292383
-0.303428
-0.313062
-0.321227
-0.327825
-0.333344
-0.337855
-0.341375
-0.343974
-0.345659
-0.34667
-0.347054
-0.346843
-0.346111
-0.344912
-0.343334
-0.341374
-0.339011
-0.336367
0.0737208
0.0631022
0.0526198
0.0410537
0.0286218
0.0151091
-8.13108e-07
-0.0158176
-0.0334196
-0.0519298
-0.0711736
-0.0914926
-0.112203
-0.132541
-0.153012
-0.173167
-0.192042
-0.209865
-0.226755
-0.242379
-0.256307
-0.268687
-0.279855
-0.289721
-0.298213
-0.305195
-0.311131
-0.316076
-0.320039
-0.323079
-0.325186
-0.326605
-0.327377
-0.327532
-0.32714
-0.326252
-0.324957
-0.323257
-0.321134
-0.318725
0.067482
0.0577237
0.0481193
0.0375747
0.0262977
0.0141022
0.000523976
-0.0136438
-0.029381
-0.0459392
-0.0631748
-0.0814254
-0.100142
-0.118642
-0.137382
-0.156
-0.173621
-0.190419
-0.206484
-0.221508
-0.235066
-0.247251
-0.258356
-0.268271
-0.276921
-0.284136
-0.290351
-0.295604
-0.299895
-0.303275
-0.305719
-0.307468
-0.30856
-0.309021
-0.308917
-0.308293
-0.307241
-0.305764
-0.303846
-0.301641
0.0620316
0.0530118
0.0441565
0.0344749
0.0241658
0.013067
0.000760122
-0.0120418
-0.0262265
-0.0411482
-0.0566855
-0.0731612
-0.0901309
-0.106988
-0.124145
-0.141316
-0.157708
-0.17346
-0.18864
-0.202968
-0.216035
-0.227891
-0.238793
-0.248616
-0.257282
-0.264599
-0.270972
-0.276423
-0.280941
-0.284569
-0.287269
-0.289276
-0.290622
-0.291331
-0.291463
-0.291058
-0.290206
-0.288915
-0.28717
-0.285139
0.057243
0.0488667
0.0406607
0.0317214
0.0222378
0.0120672
0.000833548
-0.0108186
-0.0236958
-0.0372304
-0.051321
-0.0662716
-0.0817138
-0.0971117
-0.11284
-0.128669
-0.143888
-0.158611
-0.17289
-0.186473
-0.198972
-0.210409
-0.221005
-0.230627
-0.239201
-0.246516
-0.252944
-0.258495
-0.26315
-0.266945
-0.269828
-0.272026
-0.273566
-0.274468
-0.274786
-0.274556
-0.273866
-0.272726
-0.271122
-0.269235
0.0530123
0.0452035
0.0375686
0.0292767
0.0205078
0.0111361
0.00082133
-0.0098498
-0.0216109
-0.0339589
-0.0468065
-0.060437
-0.0745436
-0.0886489
-0.103092
-0.117693
-0.131811
-0.145544
-0.158936
-0.171758
-0.18365
-0.194609
-0.204828
-0.214173
-0.22257
-0.229798
-0.236197
-0.241769
-0.246484
-0.250373
-0.253375
-0.255705
-0.257384
-0.258428
-0.258887
-0.258791
-0.258227
-0.257205
-0.255712
-0.253942
0.0492546
0.0419516
0.0348243
0.0271046
0.0189629
0.0102872
0.000769851
-0.00905283
-0.0198509
-0.0311728
-0.0429429
-0.0554249
-0.0683584
-0.0813171
-0.0946101
-0.108091
-0.121189
-0.133987
-0.146522
-0.158591
-0.169858
-0.180308
-0.190105
-0.199116
-0.207275
-0.21435
-0.220653
-0.226179
-0.230891
-0.234814
-0.237879
-0.240287
-0.242057
-0.243199
-0.243758
-0.243761
-0.24329
-0.242355
-0.240948
-0.23927
0.0458998
0.0390518
0.0323802
0.0251708
0.0175853
0.0095238
0.000706127
-0.0083748
-0.0183322
-0.0287589
-0.0395875
-0.0510622
-0.0629609
-0.0749001
-0.087161
-0.0996273
-0.111785
-0.123707
-0.135427
-0.146766
-0.15741
-0.167333
-0.176683
-0.185327
-0.193201
-0.200074
-0.20623
-0.211657
-0.216315
-0.220221
-0.2233
-0.225743
-0.227561
-0.228762
-0.229387
-0.229456
-0.229049
-0.228177
-0.226833
-0.225226
0.0428901
0.0364547
0.0301948
0.0234449
0.0163575
0.00884283
0.000645478
-0.00778018
-0.0169974
-0.0266354
-0.0366345
-0.0472209
-0.0582013
-0.0692301
-0.0805646
-0.0921104
-0.103405
-0.114515
-0.125467
-0.136105
-0.146139
-0.155536
-0.164426
-0.17268
-0.18024
-0.186876
-0.192847
-0.198135
-0.202695
-0.206543
-0.209599
-0.212039
-0.21387
-0.215097
-0.215757
-0.215866
-0.215499
-0.214668
-0.213366
-0.211812
0.0401769
0.0341184
0.0282334
0.0218998
0.0152617
0.00823855
0.000595643
-0.00724655
-0.0158059
-0.0247441
-0.034007
-0.0438037
-0.0539656
-0.0641791
-0.074679
-0.0853896
-0.0958941
-0.106251
-0.116485
-0.126457
-0.135901
-0.14478
-0.153209
-0.161064
-0.16829
-0.174665
-0.180423
-0.185542
-0.189974
-0.193731
-0.196731
-0.199137
-0.200953
-0.202179
-0.202849
-0.202975
-0.202628
-0.201819
-0.200546
-0.199031
0.0377195
0.0320072
0.0264656
0.0205118
0.0142816
0.00770253
0.000559254
-0.00675914
-0.0147299
-0.0230422
-0.0316472
-0.0407382
-0.0501663
-0.0596462
-0.0693932
-0.0793449
-0.0891245
-0.0987859
-0.10835
-0.117693
-0.126573
-0.134948
-0.142922
-0.150376
-0.15726
-0.163358
-0.168884
-0.173811
-0.178092
-0.181734
-0.184653
-0.187
-0.188777
-0.18998
-0.19064
-0.190766
-0.190423
-0.189624
-0.188367
-0.186881
0.0354835
0.030091
0.0248653
0.0192597
0.0134017
0.00722677
0.000536376
-0.00630895
-0.0137491
-0.0214984
-0.0295117
-0.0379676
-0.0467345
-0.0555517
-0.0646163
-0.0738776
-0.0829927
-0.0920105
-0.100951
-0.109704
-0.118047
-0.125937
-0.133468
-0.140525
-0.147064
-0.152878
-0.158159
-0.16288
-0.166992
-0.170501
-0.173321
-0.175591
-0.17731
-0.178474
-0.179109
-0.17922
-0.178869
-0.17807
-0.176823
-0.175359
0.0334402
0.0283443
0.0234102
0.0181254
0.0126091
0.00680339
0.000525881
-0.00588939
-0.0128484
-0.0200881
-0.0275663
-0.0354481
-0.0436161
-0.0518318
-0.0602765
-0.0689075
-0.0774126
-0.0858364
-0.0941974
-0.102397
-0.110232
-0.117658
-0.124761
-0.13143
-0.137629
-0.143155
-0.148185
-0.152691
-0.156623
-0.159986
-0.162693
-0.164872
-0.166521
-0.167632
-0.16823
-0.168317
-0.167951
-0.167146
-0.165904
-0.16446
0.0315654
0.0267456
0.0220817
0.0170935
0.0118922
0.00642572
0.000526176
-0.00549652
-0.0120167
-0.0187927
-0.0257848
-0.0331451
-0.0407688
-0.048437
-0.0563159
-0.0643703
-0.0723147
-0.0801897
-0.0880122
-0.0956946
-0.10305
-0.110035
-0.116726
-0.123021
-0.128885
-0.134125
-0.138903
-0.143189
-0.146935
-0.150143
-0.152728
-0.154807
-0.156376
-0.157427
-0.15798
-0.158036
-0.15765
-0.156835
-0.155598
-0.154175
0.0298386
0.0252767
0.0208639
0.016151
0.0112408
0.00608702
0.000535169
-0.00512767
-0.0112464
-0.0175986
-0.0241471
-0.0310319
-0.0381586
-0.0453264
-0.0526877
-0.0602129
-0.0676409
-0.0750085
-0.0823307
-0.0895295
-0.0964337
-0.103001
-0.109299
-0.115233
-0.120771
-0.12573
-0.130258
-0.134324
-0.13788
-0.140929
-0.143386
-0.14536
-0.146843
-0.147828
-0.148332
-0.148354
-0.147947
-0.147123
-0.145893
-0.144493
0.0282425
0.023922
0.0197432
0.0152863
0.0106461
0.00578153
0.000550592
-0.00478117
-0.010531
-0.0164944
-0.0226367
-0.0290861
-0.0357577
-0.0424666
-0.0493525
-0.0563908
-0.0633424
-0.0702403
-0.0770979
-0.0838453
-0.0903253
-0.0964969
-0.102422
-0.10801
-0.113234
-0.117919
-0.122201
-0.126048
-0.129416
-0.132304
-0.134631
-0.136497
-0.137892
-0.138808
-0.139261
-0.139249
-0.138821
-0.137991
-0.136771
-0.1354
0.0267624
0.0226685
0.0187082
0.01449
0.0101009
0.00550433
0.00057065
-0.00445541
-0.00986521
-0.0154708
-0.0212395
-0.027289
-0.0335423
-0.0398293
-0.0462776
-0.0528668
-0.0593779
-0.0658407
-0.0722664
-0.0785921
-0.0846741
-0.0904727
-0.0960438
-0.101302
-0.106224
-0.110645
-0.114687
-0.118321
-0.121502
-0.124231
-0.126428
-0.128184
-0.129491
-0.130338
-0.130741
-0.130697
-0.130251
-0.129419
-0.128215
-0.126879
0.0253857
0.0215049
0.0177492
0.0137538
0.00959876
0.00525168
0.000594017
-0.00414911
-0.00924449
-0.0145196
-0.0199438
-0.0256245
-0.0314922
-0.0373906
-0.0434353
-0.0496095
-0.0557125
-0.061771
-0.067795
-0.0737273
-0.079436
-0.0848831
-0.0901193
-0.0950642
-0.0996971
-0.103863
-0.107674
-0.111101
-0.1141
-0.116673
-0.118742
-0.120391
-0.121611
-0.122391
-0.122746
-0.122672
-0.122213
-0.121384
-0.120203
-0.118909
0.0241017
0.0204216
0.0168576
0.0130711
0.0091346
0.00502009
0.000619446
-0.00386098
-0.00866477
-0.0136337
-0.0187394
-0.0240795
-0.0295906
-0.0351297
-0.0408017
-0.0465916
-0.0523158
-0.0579986
-0.0636484
-0.0692134
-0.0745724
-0.079689
-0.0846085
-0.0892569
-0.0936145
-0.0975372
-0.101126
-0.104352
-0.107176
-0.109597
-0.111541
-0.113085
-0.114221
-0.114938
-0.115249
-0.11515
-0.114682
-0.113862
-0.112713
-0.111467
0.0229014
0.0194104
0.0160265
0.0124358
0.00870414
0.00480706
0.000646093
-0.00358993
-0.00812254
-0.0128072
-0.0176176
-0.0226421
-0.0278231
-0.0330292
-0.0383555
-0.043789
-0.0491616
-0.054495
-0.0597963
-0.0650181
-0.0700494
-0.0748548
-0.0794768
-0.0838437
-0.0879406
-0.0916307
-0.0950065
-0.0980413
-0.100696
-0.10297
-0.104794
-0.106239
-0.107294
-0.107952
-0.108222
-0.108103
-0.107633
-0.10683
-0.105716
-0.104528
0.021777
0.0184644
0.01525
0.0118432
0.00830395
0.00461041
0.000673464
-0.00333447
-0.00761448
-0.0120347
-0.0165706
-0.0213021
-0.0261766
-0.0310736
-0.0360791
-0.0411813
-0.0462269
-0.0512351
-0.0562114
-0.0611124
-0.0658362
-0.0703505
-0.0746909
-0.0787934
-0.0826423
-0.0861115
-0.0892844
-0.0921367
-0.0946292
-0.0967637
-0.0984731
-0.0998221
-0.100802
-0.101404
-0.10164
-0.101505
-0.101039
-0.100257
-0.0991874
-0.0980605
0.0207217
0.0175778
0.0145231
0.0112896
0.00793107
0.00442847
0.000701202
-0.00309349
-0.00713767
-0.0113114
-0.0155916
-0.0200503
-0.0246396
-0.0292492
-0.0339564
-0.0387505
-0.0434917
-0.0481967
-0.0528694
-0.0574706
-0.0619072
-0.0661469
-0.0702237
-0.074076
-0.0776908
-0.0809504
-0.0839316
-0.0866087
-0.0889481
-0.0909489
-0.092549
-0.0938082
-0.094718
-0.0952701
-0.0954751
-0.0953305
-0.0948717
-0.0941174
-0.0930963
-0.0920372
0.0197298
0.0167454
0.0138416
0.0107714
0.00758297
0.00425976
0.000729297
-0.00286559
-0.00668935
-0.0106327
-0.0146743
-0.0188788
-0.0232022
-0.0275439
-0.0319733
-0.0364805
-0.0409377
-0.0453597
-0.0497494
-0.0540706
-0.0582372
-0.0622203
-0.0660486
-0.0696654
-0.0730593
-0.0761211
-0.0789192
-0.0814321
-0.0836245
-0.0854987
-0.0869957
-0.0881703
-0.0890148
-0.0895215
-0.0897006
-0.0895504
-0.0891044
-0.088382
-0.0874132
-0.086424
0.0187963
0.0159628
0.0132017
0.0102856
0.0072576
0.00410334
0.000757913
-0.00264944
-0.00626663
-0.0099944
-0.0138131
-0.0177801
-0.0218554
-0.0259471
-0.0301172
-0.0343565
-0.0385492
-0.0427073
-0.0468323
-0.0508912
-0.0548059
-0.0585473
-0.0621421
-0.0655375
-0.0687231
-0.0715976
-0.0742239
-0.0765792
-0.0786341
-0.0803884
-0.0817877
-0.0828831
-0.0836671
-0.0841327
-0.08429
-0.084138
-0.0837085
-0.0830212
-0.0821073
-0.0811888
0.0179169
0.0152264
0.0126003
0.00982986
0.00695329
0.00395845
0.000787163
-0.00244382
-0.00586725
-0.009393
-0.0130027
-0.0167477
-0.0205909
-0.0244488
-0.0283768
-0.0323668
-0.036312
-0.0402231
-0.0441012
-0.047915
-0.0515923
-0.0551075
-0.058483
-0.0616702
-0.0646594
-0.0673575
-0.0698202
-0.0720288
-0.0739524
-0.0755935
-0.0769016
-0.0779225
-0.0786501
-0.0790786
-0.0792177
-0.0790666
-0.0786563
-0.0780057
-0.0771479
-0.0762985
0.0170876
0.0145326
0.0120346
0.00940193
0.0066687
0.00382442
0.000817148
-0.00224769
-0.005489
-0.00882498
-0.0122387
-0.0157755
-0.0194013
-0.0230406
-0.0267429
-0.0304992
-0.0342134
-0.037894
-0.0415402
-0.0451239
-0.0485799
-0.0518823
-0.0550517
-0.0580432
-0.0608475
-0.063379
-0.0656887
-0.0677567
-0.0695579
-0.0710925
-0.0723138
-0.073265
-0.0739408
-0.0743352
-0.0744584
-0.0743107
-0.0739203
-0.0733077
-0.072504
-0.0717216
0.0163052
0.0138787
0.0115022
0.00900004
0.00640253
0.00370061
0.000848163
-0.00205988
-0.00512975
-0.00828726
-0.0115168
-0.0148582
-0.0182806
-0.0217152
-0.0252059
-0.0287442
-0.032242
-0.035706
-0.0391358
-0.0425044
-0.0457516
-0.0488547
-0.0518307
-0.054638
-0.0572684
-0.059643
-0.0618072
-0.0637447
-0.0654291
-0.0668629
-0.0680034
-0.0688893
-0.0695158
-0.0698792
-0.0699885
-0.0698446
-0.069475
-0.0688985
-0.0681474
-0.0674258
0.0155665
0.0132619
0.0110009
0.00862252
0.00615363
0.00358661
0.000880438
-0.00187938
-0.00478761
-0.00777714
-0.0108332
-0.0139914
-0.0172229
-0.0204657
-0.0237586
-0.0270921
-0.0303869
-0.0336487
-0.0368749
-0.0400415
-0.0430939
-0.0460094
-0.0488036
-0.0514379
-0.0539044
-0.0561311
-0.0581591
-0.0599716
-0.0615471
-0.0628862
-0.0639496
-0.0647737
-0.0653547
-0.0656884
-0.0657849
-0.0656451
-0.0652948
-0.0647527
-0.0640498
-0.0633835
0.0148687
0.01268
0.0105288
0.00826791
0.00592107
0.00348192
0.000914192
-0.00170529
-0.00446107
-0.00729212
-0.0101852
-0.013171
-0.0162236
-0.0192865
-0.022393
-0.025535
-0.0286396
-0.0317108
-0.0347468
-0.0377243
-0.0405928
-0.0433325
-0.0459557
-0.0484273
-0.0507396
-0.052827
-0.0547257
-0.0564219
-0.0578933
-0.0591426
-0.0601338
-0.0608995
-0.0614365
-0.0617425
-0.0618263
-0.0616896
-0.0613569
-0.0608454
-0.060186
-0.0595672
0.0142094
0.0121308
0.0100842
0.00793489
0.00570395
0.00338615
0.000949462
-0.00153716
-0.00414884
-0.00683058
-0.00956974
-0.0123938
-0.0152782
-0.0181713
-0.0211034
-0.0240651
-0.0269909
-0.029884
-0.0327409
-0.0355404
-0.0382371
-0.040811
-0.0432735
-0.045592
-0.0477591
-0.0497149
-0.0514925
-0.0530773
-0.0544516
-0.0556159
-0.0565379
-0.0572478
-0.0577435
-0.0580218
-0.0580927
-0.0579576
-0.0576394
-0.0571546
-0.0565321
-0.0559533
0.0135861
0.0116122
0.00966535
0.00762216
0.00550142
0.00329883
0.000986225
-0.0013745
-0.00385005
-0.00639055
-0.00898483
-0.0116563
-0.014382
-0.0171159
-0.0198833
-0.0226761
-0.025434
-0.028159
-0.0308482
-0.0334809
-0.0360151
-0.0384334
-0.0407447
-0.0429191
-0.0449495
-0.0467814
-0.0484438
-0.0499248
-0.051206
-0.0522896
-0.0531461
-0.0538028
-0.0542575
-0.0545091
-0.0545657
-0.0544301
-0.0541227
-0.0536599
-0.0530675
-0.0525196
0.0129967
0.0111223
0.0092706
0.00732844
0.00531253
0.00321946
0.00102446
-0.00121687
-0.00356352
-0.00597084
-0.00842792
-0.0109554
-0.013532
-0.0161152
-0.0187282
-0.0213617
-0.0239616
-0.0265291
-0.0290599
-0.0315356
-0.0339178
-0.0361893
-0.0383582
-0.0403968
-0.0422983
-0.0440131
-0.0455673
-0.0469488
-0.0481426
-0.0491496
-0.049943
-0.0505482
-0.0509636
-0.0511875
-0.0512289
-0.0510899
-0.0507897
-0.050343
-0.0497742
-0.0492478
0.0124391
0.0106595
0.00889849
0.00705253
0.00513643
0.00314752
0.00106411
-0.00106373
-0.00328867
-0.0055697
-0.00789724
-0.0102887
-0.0127243
-0.015166
-0.0176328
-0.0201168
-0.0225679
-0.0249865
-0.0273689
-0.029697
-0.0319355
-0.0340691
-0.0361037
-0.0380144
-0.0397944
-0.0413986
-0.0428499
-0.0441382
-0.0452482
-0.0461819
-0.0469152
-0.0474706
-0.0478466
-0.048043
-0.0480673
-0.0479219
-0.0476246
-0.0471886
-0.0466363
-0.0461226
0.0119115
0.0102221
0.00854765
0.00679335
0.00497232
0.00308255
0.00110524
-0.000915076
-0.00302441
-0.00518613
-0.00739091
-0.00965387
-0.0119565
-0.014264
-0.0165936
-0.0189363
-0.0212471
-0.023526
-0.025768
-0.027957
-0.0300607
-0.032064
-0.0339722
-0.0357622
-0.0374274
-0.0389269
-0.0402812
-0.0414801
-0.0425111
-0.0433749
-0.0440499
-0.0445567
-0.0448944
-0.045062
-0.0450674
-0.0449127
-0.0446139
-0.0441833
-0.0436406
-0.0431318
0.0114122
0.00980868
0.00821682
0.00654987
0.00481944
0.0030242
0.00114743
-0.000770365
-0.00277034
-0.00481886
-0.00690733
-0.00904869
-0.0112256
-0.0134067
-0.0156062
-0.0178159
-0.0199946
-0.0221412
-0.0242515
-0.0263095
-0.0282855
-0.0301661
-0.0319552
-0.0336312
-0.035188
-0.0365884
-0.0378503
-0.0389653
-0.0399203
-0.0407172
-0.0413362
-0.0417956
-0.0420946
-0.0422331
-0.0422177
-0.0420506
-0.0417463
-0.0413157
-0.0407762
-0.0402646
0.0109396
0.00941776
0.0079048
0.00632113
0.0046771
0.00297176
0.00119084
-0.000629687
-0.00252575
-0.0044669
-0.0064451
-0.00847135
-0.0105295
-0.0125907
-0.0146677
-0.0167518
-0.0188055
-0.0208278
-0.0228133
-0.0247477
-0.0266038
-0.0283684
-0.0300448
-0.0316133
-0.0330676
-0.0343742
-0.035549
-0.0365831
-0.0374664
-0.0381991
-0.0387636
-0.0391766
-0.0394376
-0.0395458
-0.0395079
-0.0393257
-0.0390121
-0.0385768
-0.0380349
-0.0375137
0.010492
0.0090481
0.00761046
0.0061062
0.00454452
0.00292504
0.00123506
-0.000492732
-0.00229012
-0.00412939
-0.00600299
-0.0079202
-0.00986588
-0.011814
-0.0137748
-0.0157403
-0.0176762
-0.0195806
-0.0214488
-0.0232667
-0.0250091
-0.0266644
-0.0282345
-0.0297013
-0.0310587
-0.0322764
-0.033368
-0.0343262
-0.0351403
-0.0358114
-0.0363234
-0.0366911
-0.0369137
-0.0369914
-0.0369293
-0.0367294
-0.0364032
-0.035959
-0.0354099
-0.0348737
0.0100681
0.00869846
0.00733275
0.00590424
0.00442122
0.00288338
0.00128013
-0.000359428
-0.00206306
-0.00380559
-0.00557991
-0.00739378
-0.00923305
-0.0110737
-0.012925
-0.0147783
-0.0166027
-0.0183961
-0.0201532
-0.0218609
-0.0234965
-0.0250482
-0.0265178
-0.0278885
-0.0291543
-0.0302876
-0.0313006
-0.0321857
-0.0329343
-0.0335463
-0.0340073
-0.0343306
-0.0345157
-0.0345617
-0.0344744
-0.0342549
-0.0339132
-0.0334567
-0.0328963
-0.0323408
0.00966669
0.00836772
0.00707069
0.00571452
0.00430636
0.00284659
0.00132573
-0.000229728
-0.00184423
-0.00349486
-0.0051749
-0.00689076
-0.00862913
-0.0103683
-0.0121155
-0.013863
-0.015582
-0.0172701
-0.0189225
-0.0205264
-0.0220605
-0.0235146
-0.0248893
-0.026169
-0.0273481
-0.0284014
-0.0293393
-0.0301556
-0.0308411
-0.0313964
-0.0318083
-0.0320883
-0.0322357
-0.0322506
-0.0321369
-0.0318961
-0.0315368
-0.0310653
-0.0304906
-0.0299128
0.00928637
0.00805478
0.00682339
0.00553611
0.00419955
0.00281404
0.00137174
-0.000103579
-0.00163332
-0.00319662
-0.0047871
-0.00640998
-0.00805279
-0.00969553
-0.0113445
-0.0129916
-0.014611
-0.0161999
-0.0177529
-0.0192585
-0.0206972
-0.0220588
-0.0233436
-0.0245373
-0.0256343
-0.0266117
-0.0274787
-0.0282288
-0.0288546
-0.0293555
-0.0297197
-0.0299576
-0.0300686
-0.0300517
-0.0299114
-0.0296483
-0.0292698
-0.0287816
-0.0281905
-0.0275886
0.00892604
0.00775866
0.00658988
0.00536845
0.00410004
0.00278548
0.001418
1.90322e-05
-0.0014301
-0.00291037
-0.00441575
-0.00595036
-0.00750251
-0.00905406
-0.0106096
-0.012162
-0.0136871
-0.0151817
-0.0166412
-0.018054
-0.019402
-0.0206763
-0.0218761
-0.0229885
-0.0240077
-0.0249133
-0.0257127
-0.0264005
-0.0269687
-0.0274176
-0.0277362
-0.0279334
-0.0280082
-0.0279606
-0.0277934
-0.0275074
-0.0271092
-0.0266028
-0.0259946
-0.0253677
0.00858457
0.00747837
0.00636942
0.00521072
0.00400745
0.00276052
0.0014643
0.000138106
-0.00123434
-0.00263566
-0.00406014
-0.00551097
-0.00697719
-0.00844193
-0.00990941
-0.0113719
-0.0128076
-0.0142134
-0.015584
-0.0169089
-0.0181717
-0.0193632
-0.0204827
-0.021518
-0.0224638
-0.0233011
-0.0240367
-0.0246647
-0.0251787
-0.0255779
-0.0258524
-0.0260102
-0.0260507
-0.0259724
-0.0257789
-0.0254701
-0.0250517
-0.0245277
-0.0239016
-0.0232505
0.00826097
0.00721305
0.00616125
0.00506241
0.00392121
0.00273882
0.00151048
0.000253633
-0.00104584
-0.0023721
-0.00371966
-0.00509093
-0.00647553
-0.00785824
-0.0092418
-0.0106193
-0.0119705
-0.013292
-0.0145788
-0.0158207
-0.0170025
-0.0181159
-0.0191595
-0.020122
-0.0209983
-0.021771
-0.0224458
-0.0230177
-0.0234796
-0.0238314
-0.0240642
-0.0241845
-0.0241911
-0.0240839
-0.0238646
-0.0235337
-0.0230959
-0.0225539
-0.0219115
-0.0212373
0.00795424
0.00696191
0.00596455
0.00492283
0.0038409
0.00272003
0.00155635
0.00036559
-0.000864459
-0.0021193
-0.00339372
-0.00468942
-0.00599666
-0.00730126
-0.00860564
-0.00990255
-0.0111737
-0.0124155
-0.0136227
-0.0147862
-0.0158917
-0.016931
-0.0179029
-0.0187967
-0.0196072
-0.0203188
-0.0209363
-0.0214543
-0.0218675
-0.0221745
-0.0223671
-0.0224515
-0.0224267
-0.0222912
-0.0220476
-0.0216957
-0.0212392
-0.0206813
-0.0200232
-0.0193286
0.00766351
0.00672404
0.00577872
0.00479146
0.00376596
0.00270384
0.00160176
0.000473972
-0.00069002
-0.00187693
-0.0030818
-0.00430572
-0.0055395
-0.00677024
-0.0079992
-0.00921995
-0.0104152
-0.0115814
-0.0127137
-0.013803
-0.0148361
-0.0158057
-0.0167097
-0.0175385
-0.0182869
-0.0189408
-0.0195039
-0.0199718
-0.0203382
-0.0206027
-0.0207579
-0.0208085
-0.0207533
-0.0205918
-0.0203252
-0.0199536
-0.0194805
-0.0189075
-0.0182368
-0.0175245
0.00738785
0.00649878
0.00560304
0.00466765
0.00369614
0.00268995
0.00164654
0.000578762
-0.000522371
-0.00164468
-0.00278342
-0.00393918
-0.0051033
-0.00626368
-0.00742153
-0.00856992
-0.00969336
-0.0107882
-0.0118493
-0.0128685
-0.0138335
-0.0147369
-0.015577
-0.0163444
-0.0170343
-0.0176337
-0.0181458
-0.0185656
-0.0188886
-0.0191132
-0.0192327
-0.0192515
-0.0191687
-0.0189825
-0.018695
-0.0183057
-0.0178175
-0.0172326
-0.0165509
-0.0158249
0.00712648
0.00628533
0.00543692
0.00455109
0.00363087
0.00267808
0.00169055
0.00067994
-0.000361388
-0.00142226
-0.00249814
-0.00358916
-0.0046871
-0.00578101
-0.00687106
-0.00795111
-0.00900658
-0.0100337
-0.0110278
-0.0119808
-0.0128811
-0.0137222
-0.0145019
-0.0152114
-0.0158462
-0.0163943
-0.016858
-0.0172334
-0.017515
-0.0177023
-0.0177889
-0.0177783
-0.0176691
-0.0174609
-0.0171544
-0.0167496
-0.016249
-0.0156539
-0.0149654
-0.0142292
0.0068786
0.00608313
0.0052798
0.00444109
0.00356996
0.00266797
0.00173363
0.000777482
-0.000206954
-0.00120941
-0.00222555
-0.00325509
-0.00429029
-0.0053209
-0.00634701
-0.00736218
-0.00835323
-0.00931649
-0.010247
-0.0111374
-0.011977
-0.0127592
-0.0134819
-0.0141369
-0.0147198
-0.0152196
-0.0156382
-0.0159713
-0.0162149
-0.0163674
-0.016423
-0.0163851
-0.0162527
-0.0160241
-0.0157011
-0.0152832
-0.0147724
-0.014171
-0.0134777
-0.0127362
0.00664357
0.00589144
0.00513111
0.00433742
0.00351286
0.00265936
0.00177567
0.000871372
-5.89541e-05
-0.00100588
-0.00196524
-0.00293639
-0.00391205
-0.00488282
-0.005848
-0.0068019
-0.00773206
-0.00863469
-0.00950541
-0.0103367
-0.0111187
-0.0118456
-0.0125146
-0.0131184
-0.0136525
-0.014107
-0.0144831
-0.0147774
-0.0149849
-0.015105
-0.0151326
-0.0150699
-0.0149158
-0.01467
-0.0143327
-0.0139041
-0.0133865
-0.0127806
-0.0120874
-0.0113442
0.00642054
0.00570975
0.00499035
0.0042394
0.00345941
0.00265202
0.00181652
0.00096159
8.27199e-05
-0.000811415
-0.00171682
-0.00263257
-0.00355179
-0.00446558
-0.00537336
-0.0062691
-0.00714162
-0.00798722
-0.00880115
-0.00957668
-0.0103047
-0.0109792
-0.0115977
-0.0121534
-0.0126417
-0.0130538
-0.0133905
-0.0136479
-0.0138227
-0.0139131
-0.0139146
-0.0138294
-0.0136569
-0.0133954
-0.0130466
-0.0126102
-0.0120879
-0.0114819
-0.0107907
-0.0100508
0.00620899
0.00553739
0.00485698
0.00414687
0.00340913
0.00264572
0.00185608
0.00104813
0.000218174
-0.000625796
-0.00147995
-0.00234311
-0.00320874
-0.00406876
-0.00492186
-0.00576274
-0.00658083
-0.00737227
-0.00813289
-0.00885592
-0.00953274
-0.0101581
-0.0107293
-0.0112397
-0.0116853
-0.0120577
-0.0123574
-0.0125814
-0.0127252
-0.0127884
-0.0127666
-0.0126615
-0.012472
-0.0121983
-0.0118402
-0.0113984
-0.0108749
-0.0102706
-0.00958625
-0.00885301
0.00600816
0.00537388
0.00473061
0.00405924
0.00336189
0.00264026
0.00189423
0.00113098
0.000347508
-0.000448803
-0.00125428
-0.00206755
-0.00288243
-0.00369128
-0.00449291
-0.0052818
-0.00604835
-0.00678892
-0.00749894
-0.00817242
-0.0088014
-0.00938047
-0.00990713
-0.0103752
-0.0107808
-0.0111162
-0.0113819
-0.0115742
-0.0116904
-0.0117288
-0.0116857
-0.0115629
-0.0113599
-0.0110753
-0.0107108
-0.0102664
-0.00974377
-0.00914534
-0.0084696
-0.00774756
0.00581757
0.0052187
0.00461073
0.00397634
0.00331726
0.00263545
0.00193089
0.00121013
0.000470826
-0.000280231
-0.0010395
-0.00180542
-0.00257217
-0.00333276
-0.00408541
-0.00482528
-0.0055432
-0.00623549
-0.00689813
-0.00752503
-0.00810868
-0.00864446
-0.00912941
-0.00955797
-0.00992625
-0.0102273
-0.0104611
-0.010625
-0.0107153
-0.0107313
-0.0106697
-0.0105317
-0.0103165
-0.0100243
-0.00965549
-0.00921083
-0.00869238
-0.00810119
-0.00743847
-0.0067304
0.00563656
0.00507135
0.004497
0.00389764
0.00327511
0.00263111
0.00196595
0.0012856
0.000588232
-0.000119866
-0.000835282
-0.00155633
-0.00227753
-0.0029922
-0.00369883
-0.00439221
-0.00506418
-0.00571118
-0.0063289
-0.0069119
-0.00745337
-0.00794831
-0.00839428
-0.00878588
-0.00911945
-0.00938862
-0.0095934
-0.00973056
-0.00979791
-0.00979393
-0.00971563
-0.00956447
-0.00934026
-0.00904193
-0.00867135
-0.00822888
-0.00771631
-0.00713631
-0.0064877
-0.00579732
0.00546467
0.00493138
0.00438894
0.00382301
0.00323507
0.00262708
0.00199935
0.00135739
0.000699832
3.24975e-05
-0.000641327
-0.00131986
-0.00199787
-0.00266931
-0.00333211
-0.00398175
-0.00461041
-0.00521448
-0.00579019
-0.00633203
-0.00683354
-0.00729044
-0.00769997
-0.00805712
-0.00835848
-0.00859822
-0.00877593
-0.00888947
-0.00893551
-0.00891362
-0.00882125
-0.00865931
-0.00842722
-0.00812576
-0.00775526
-0.00731703
-0.00681321
-0.0062452
-0.00561447
-0.00494373
0.00530131
0.00479833
0.00428626
0.00375196
0.00319705
0.00262319
0.00203102
0.00142551
0.00080573
0.000177059
-0.00045734
-0.00109559
-0.00173278
-0.00236313
-0.0029848
-0.00359302
-0.00418078
-0.00474465
-0.00528058
-0.00578373
-0.00624809
-0.00666927
-0.00704476
-0.00736991
-0.0076414
-0.00785393
-0.00800724
-0.00809854
-0.00812608
-0.00808854
-0.00798368
-0.00781272
-0.00757581
-0.00727227
-0.00690412
-0.00647218
-0.00597836
-0.00542563
-0.00481323
-0.00416491
0.00514606
0.00467179
0.00418852
0.00368438
0.00316069
0.00261932
0.00206088
0.00148998
0.000906029
0.00031401
-0.00028303
-0.000883148
-0.00148169
-0.00207338
-0.00265592
-0.00322523
-0.00377448
-0.00430029
-0.00479912
-0.00526601
-0.00569529
-0.00608325
-0.00642704
-0.00672247
-0.00696636
-0.00715395
-0.00728461
-0.00735656
-0.00736701
-0.00731568
-0.0072007
-0.00702287
-0.00678194
-0.00647902
-0.00611469
-0.00569063
-0.00520913
-0.00467197
-0.00408083
-0.00345599
0.00499839
0.00455137
0.00409547
0.00361984
0.00312592
0.00261533
0.0020889
0.00155083
0.00100084