/*--------------------------------*- C++ -*----------------------------------*\
| =========                 |                                                 |
| \\      /  F ield         | OpenFOAM: The Open Source CFD Toolbox           |
|  \\    /   O peration     | Version:  3.0.1                                 |
|   \\  /    A nd           | Web:      www.OpenFOAM.org                      |
|    \\/     M anipulation  |                                                 |
\*---------------------------------------------------------------------------*/
FoamFile
{
    version     2.0;
    format      ascii;
    class       surfaceScalarField;
    location    "200";
    object      phi;
}
// * * * * * * * * * * * * * * * * * * * * * * * * * * * * * * * * * * * * * //

dimensions      [0 3 -1 0 0 0 0];

internalField   nonuniform List<scalar> 
115520
(
0.011864
-0.00202136
-0.00984241
0.0131455
-0.00128133
0.0135234
-0.000377779
0.013391
0.000132484
0.0129824
0.000408705
0.0124507
0.000531828
0.0119581
0.000492741
0.0114914
0.000466812
0.0111361
0.000355419
0.0109001
0.000236039
0.0107465
0.000153746
0.0106827
6.39292e-05
0.0107121
-2.93134e-05
0.0107879
-7.57563e-05
0.010894
-0.000105995
0.0110334
-0.000139274
0.0111972
-0.000163736
0.0113687
-0.000171427
0.0115403
-0.000171533
0.0117136
-0.000173253
0.0118921
-0.000178468
0.0120661
-0.000173891
0.0122316
-0.000165486
0.012386
-0.00015428
0.0125382
-0.000152139
0.0126832
-0.000145001
0.0128186
-0.000135267
0.0129426
-0.000123982
0.013054
-0.000111336
0.0131597
-0.00010562
0.0132556
-9.58754e-05
0.0133407
-8.50422e-05
0.0134146
-7.38743e-05
0.0134773
-6.26011e-05
0.0135185
-4.12197e-05
0.0135107
7.80147e-06
0.0134782
3.26472e-05
0.0134476
3.06552e-05
0.0134474
1.73884e-07
-5.2543e-05
0.0134999
0.00751762
-0.00319292
-0.00634604
0.00856553
-0.00232917
0.00952342
-0.00133558
0.0103535
-0.000697527
0.011044
-0.000281718
0.0115655
1.04127e-05
0.0119471
0.000111205
0.0121876
0.000226428
0.0123481
0.000194999
0.0124556
0.000128596
0.0125087
0.000100718
0.0125488
2.38622e-05
0.0126128
-9.32388e-05
0.0126767
-0.0001396
0.0127467
-0.000175933
0.0128487
-0.000241263
0.01297
-0.000284935
0.0130974
-0.000298765
0.0132291
-0.000303161
0.0133743
-0.000318396
0.0135304
-0.000334543
0.0136847
-0.000328144
0.0138354
-0.000316123
0.0139803
-0.000299134
0.0141322
-0.000304039
0.0142777
-0.000290417
0.0144149
-0.000272464
0.0145428
-0.00025179
0.0146601
-0.000228577
0.0147763
-0.000221765
0.0148819
-0.000201473
0.0149762
-0.000179316
0.0150583
-0.000155872
0.0151269
-0.000131153
0.0151847
-9.90174e-05
0.0152287
-3.61762e-05
0.0152635
-2.0761e-06
0.0152945
-3.07232e-07
0.015328
-3.32686e-05
-0.000102333
0.0153778
0.00691203
-0.00422701
-0.00587791
0.00787606
-0.00329317
0.00878406
-0.00224352
0.00957162
-0.00148503
0.0102662
-0.000976225
0.0108714
-0.000594706
0.0113679
-0.000385342
0.0117924
-0.000197997
0.0121329
-0.000145417
0.0124092
-0.000147704
0.0126336
-0.000123596
0.0128205
-0.000163055
0.0129906
-0.000263289
0.0131432
-0.000292113
0.013286
-0.000318677
0.0134378
-0.000393083
0.013595
-0.000442032
0.0137518
-0.000455602
0.013909
-0.000460314
0.0140731
-0.000482486
0.014242
-0.000503354
0.0144075
-0.000493618
0.014569
-0.000477566
0.0147253
-0.000455424
0.0148838
-0.000462496
0.0150349
-0.000441477
0.0151776
-0.000415135
0.0153114
-0.000385569
0.0154357
-0.000352775
0.0155553
-0.000341338
0.0156638
-0.000309955
0.0157608
-0.000276274
0.0158459
-0.000240899
0.0159184
-0.000203673
0.01598
-0.000160579
0.0160282
-8.4309e-05
0.0160635
-3.7407e-05
0.0160902
-2.68892e-05
0.0161088
-5.19031e-05
-0.00011249
0.016119
0.00629329
-0.00510276
-0.00541755
0.00715346
-0.00415331
0.00800347
-0.00309351
0.00879273
-0.00227425
0.0095221
-0.00170555
0.0101851
-0.00125771
0.0107627
-0.000962883
0.011283
-0.000718244
0.0117314
-0.00059382
0.0121215
-0.000537724
0.0124626
-0.000464705
0.0127605
-0.000460961
0.0130282
-0.000530885
0.0132688
-0.000532721
0.0134875
-0.000537379
0.0136988
-0.000604292
0.0139035
-0.000646768
0.0140999
-0.00065194
0.0142896
-0.000650017
0.0144797
-0.000672489
0.0146697
-0.000693326
0.0148536
-0.000677518
0.0150311
-0.000655063
0.0152016
-0.000625917
0.0153723
-0.000633165
0.0155347
-0.000603862
0.0156879
-0.000568228
0.0158312
-0.000528842
0.0159641
-0.000485667
0.0160918
-0.000468989
0.016208
-0.000426115
0.0163122
-0.000380463
0.016404
-0.000332696
0.016483
-0.000282665
0.0165516
-0.000229107
0.0166081
-0.000140763
0.0166517
-8.10419e-05
0.0166841
-5.91754e-05
0.0167058
-7.36472e-05
-0.000122855
0.0167162
0.00598434
-0.00590547
-0.00518165
0.00678323
-0.00495219
0.00758735
-0.00389761
0.00836023
-0.0030471
0.0091006
-0.0024459
0.00979752
-0.00195461
0.0104245
-0.00158987
0.0110085
-0.00130219
0.0115266
-0.00111195
0.0119889
-0.000999932
0.012406
-0.000881842
0.0127776
-0.000832526
0.0131111
-0.000864295
0.0134144
-0.0008361
0.0136915
-0.000814437
0.0139513
-0.000864032
0.0141972
-0.00089268
0.0144298
-0.000884506
0.0146512
-0.000871354
0.014867
-0.000888321
0.0150781
-0.000904362
0.0152806
-0.00087996
0.0154745
-0.00084902
0.0156599
-0.000811252
0.0158423
-0.000815553
0.0160152
-0.000776782
0.0161779
-0.000730886
0.01633
-0.000680879
0.016471
-0.000626697
0.0166051
-0.000603003
0.016727
-0.000548013
0.0168364
-0.000489823
0.016933
-0.000429253
0.0170165
-0.000366185
0.0170889
-0.000301502
0.017149
-0.000200792
0.0171956
-0.000127645
0.0172291
-9.26772e-05
0.0172495
-9.3984e-05
-0.000129315
0.0172559
0.00578364
-0.00666455
-0.00502459
0.00654352
-0.00571207
0.0073127
-0.00466679
0.00806547
-0.00379986
0.00880219
-0.00318261
0.00951323
-0.00266564
0.0101713
-0.00224793
0.010799
-0.00192991
0.0113703
-0.0016832
0.0118909
-0.00152058
0.0123708
-0.00136169
0.0128053
-0.00126701
0.0131977
-0.00125669
0.0135581
-0.00119644
0.0138889
-0.00114524
0.0141954
-0.00117049
0.0144823
-0.00117962
0.0147517
-0.00115386
0.0150056
-0.00112524
0.0152488
-0.00113153
0.0154829
-0.00113846
0.0157058
-0.0011028
0.0159178
-0.001061
0.0161191
-0.00101253
0.0163147
-0.00101109
0.0164993
-0.000961461
0.0166726
-0.000904108
0.0168341
-0.000842384
0.0169836
-0.00077619
0.0171247
-0.000744073
0.0172529
-0.000676224
0.0173679
-0.000604808
0.0174695
-0.000530789
0.0175574
-0.000454085
0.0176335
-0.000377569
0.0176967
-0.000263935
0.0177458
-0.000176733
0.0177808
-0.000127715
0.0178017
-0.000114826
-0.000135527
0.0178079
0.00566682
-0.00740182
-0.00492957
0.00640551
-0.00645076
0.00715303
-0.00541431
0.00789047
-0.0045373
0.00861994
-0.00391208
0.00933466
-0.00338035
0.0100099
-0.00292315
0.0106653
-0.00258533
0.0112743
-0.00229219
0.0118397
-0.00208592
0.0123698
-0.00189182
0.0128571
-0.00175432
0.0133013
-0.00170079
0.013713
-0.00160817
0.0140937
-0.00152588
0.014445
-0.00152179
0.0147724
-0.00150708
0.0150789
-0.00146035
0.0153665
-0.00141275
0.0156387
-0.00140373
0.0158977
-0.00139747
0.0161428
-0.00134789
0.0163746
-0.00129279
0.0165935
-0.00123142
0.0168037
-0.00122125
0.0170014
-0.00115916
0.0171863
-0.00108897
0.0173582
-0.00101426
0.0175169
-0.000934903
0.0176656
-0.000892735
0.0178005
-0.000811118
0.0179213
-0.000725635
0.0180279
-0.000637375
0.0181201
-0.000546286
0.0181996
-0.000456991
0.0182653
-0.000329628
0.0183162
-0.000227603
0.0183521
-0.000163637
0.0183729
-0.000135597
-0.000140848
0.0183782
0.00560471
-0.00813061
-0.00487595
0.00633452
-0.00718057
0.00707142
-0.00615122
0.00780081
-0.00526669
0.0085256
-0.00463688
0.00924136
-0.00409612
0.00992705
-0.00360884
0.0106001
-0.00325838
0.0112357
-0.00292777
0.0118346
-0.00268487
0.0124041
-0.00246131
0.0129348
-0.00228501
0.0134235
-0.00218949
0.0138809
-0.0020655
0.014307
-0.001952
0.0147008
-0.00191556
0.0150677
-0.00187404
0.0154113
-0.00180386
0.015733
-0.00173447
0.0160355
-0.00170619
0.0163211
-0.00168306
0.0165902
-0.00161702
0.0168436
-0.00154619
0.0170819
-0.00146966
0.0173084
-0.00144776
0.0175207
-0.00137147
0.0177186
-0.00128689
0.0179022
-0.00119776
0.0180712
-0.0011039
0.0182284
-0.00104996
0.0183708
-0.000953517
0.0184982
-0.000852971
0.0186103
-0.00074952
0.0187072
-0.000643132
0.0187902
-0.000540003
0.0188586
-0.000397992
0.0189113
-0.000280305
0.0189482
-0.000200525
0.0189691
-0.000156498
-0.000145564
0.0189738
0.00558219
-0.00886017
-0.00485266
0.00631202
-0.0079104
0.00704704
-0.00688625
0.00777539
-0.00599505
0.00850018
-0.00536168
0.00921855
-0.00481448
0.0099129
-0.0043032
0.0105989
-0.00394435
0.0112543
-0.0035832
0.0118791
-0.00330966
0.0124795
-0.00306168
0.0130454
-0.002851
0.013572
-0.00271604
0.014069
-0.00256252
0.0145358
-0.00241876
0.0149688
-0.00234862
0.0153734
-0.00227857
0.0157529
-0.00218333
0.0161085
-0.00209008
0.0164417
-0.00203939
0.0167549
-0.00199623
0.0170493
-0.00191141
0.0173257
-0.0018226
0.0175848
-0.00172872
0.0178292
-0.00169216
0.0180575
-0.00159984
0.0182699
-0.00149922
0.0184662
-0.00139412
0.0186467
-0.0012843
0.0188135
-0.00121678
0.0189643
-0.0011043
0.0190989
-0.000987559
0.0192172
-0.000867833
0.0193192
-0.000745102
0.0194062
-0.000626972
0.0194775
-0.000469289
0.0195322
-0.000335012
0.0195702
-0.000238497
0.0195913
-0.000177597
-0.000149681
0.0195954
0.00558922
-0.00959712
-0.0048523
0.00632565
-0.00864683
0.00706551
-0.00762613
0.00779882
-0.00672836
0.00852853
-0.0060914
0.00925271
-0.00553867
0.00995666
-0.00500716
0.0106544
-0.00464204
0.0113265
-0.00425533
0.0119726
-0.00395577
0.0125982
-0.00368726
0.0131934
-0.00344625
0.0137523
-0.00327487
0.0142837
-0.00309398
0.0147864
-0.00292147
0.0152553
-0.00281749
0.0156949
-0.00271815
0.0161085
-0.00259697
0.016497
-0.00247854
0.0168606
-0.00240303
0.0172017
-0.0023373
0.017522
-0.00223171
0.0178223
-0.00212288
0.0181032
-0.00200963
0.0183667
-0.00195563
0.0186123
-0.00184547
0.0188402
-0.00172712
0.0190506
-0.00160445
0.0192434
-0.00147715
0.0194208
-0.00139414
0.0195808
-0.00126433
0.0197234
-0.00113015
0.0198486
-0.000992958
0.0199562
-0.000852735
0.0200476
-0.000718341
0.0201222
-0.000543872
0.0201792
-0.000391993
0.0202184
-0.000277749
0.0202399
-0.000199028
-0.000153237
0.0202434
0.00561911
-0.0103465
-0.0048698
0.00636719
-0.00939492
0.00711717
-0.00837612
0.00786039
-0.00747159
0.0085995
-0.00683052
0.00933311
-0.00627229
0.0100488
-0.00572284
0.010759
-0.00535228
0.0114471
-0.00494338
0.0121124
-0.0046211
0.01276
-0.00433483
0.0133805
-0.00406681
0.0139676
-0.00386195
0.0145293
-0.00365573
0.015064
-0.00345612
0.0155654
-0.00331889
0.0160375
-0.00319021
0.0164832
-0.00304273
0.016903
-0.00289832
0.0172963
-0.00279631
0.017665
-0.00270601
0.0180113
-0.00257801
0.0183358
-0.00244739
0.0186391
-0.00231295
0.0189225
-0.00223901
0.0191863
-0.00210924
0.0194307
-0.00197151
0.0196559
-0.00182964
0.0198621
-0.00168329
0.0200508
-0.0015829
0.0202209
-0.00143437
0.0203722
-0.00128144
0.0205047
-0.0011255
0.0206186
-0.000966548
0.0207148
-0.000814551
0.020793
-0.000622097
0.0208525
-0.000451517
0.0208933
-0.000318473
0.0209152
-0.0002209
-0.000156274
0.0209182
0.00566717
-0.0111122
-0.00490149
0.00643092
-0.0101587
0.00719528
-0.00914049
0.00795252
-0.00822883
0.00870494
-0.00758294
0.00945147
-0.00701883
0.0101814
-0.00645279
0.010906
-0.00607682
0.0116105
-0.00564792
0.0122945
-0.00530516
0.0129626
-0.00500294
0.0136063
-0.00471046
0.014219
-0.00447467
0.0148081
-0.00424483
0.0153716
-0.00401965
0.0159029
-0.00385014
0.0164051
-0.00369242
0.016881
-0.00351862
0.0173305
-0.00334783
0.0177523
-0.00321817
0.0181481
-0.00310181
0.0185202
-0.00295004
0.0188689
-0.00279614
0.0191949
-0.0026389
0.0194987
-0.00254279
0.0197812
-0.00239176
0.0200427
-0.00223304
0.0202835
-0.00207038
0.0205036
-0.00190342
0.0207045
-0.00178376
0.0208852
-0.0016151
0.0210458
-0.00144203
0.0211863
-0.001266
0.0213068
-0.001087
0.0214082
-0.000915997
0.0214904
-0.000704283
0.0215527
-0.000513828
0.0215951
-0.000360835
0.0216175
-0.000243305
-0.000158781
0.02162
0.00572999
-0.0118975
-0.00494468
0.00651276
-0.0109415
0.007295
-0.00992274
0.00806972
-0.00900356
0.00883887
-0.0083521
0.00960151
-0.00778148
0.0103483
-0.00719963
0.0110893
-0.00681781
0.0118117
-0.00637028
0.012515
-0.00600847
0.0132034
-0.00569134
0.0138691
-0.00537623
0.014506
-0.00511158
0.0151207
-0.00485944
0.015711
-0.00460997
0.01627
-0.00440921
0.0168005
-0.00422292
0.0173049
-0.00402294
0.0177826
-0.00382558
0.018232
-0.00366752
0.0186541
-0.00352398
0.0190515
-0.00334736
0.0194242
-0.00316891
0.0197728
-0.00298749
0.0200972
-0.00286722
0.0203989
-0.00269339
0.020678
-0.00251214
0.0209348
-0.00232716
0.0211694
-0.00213806
0.0213829
-0.00199728
0.0215748
-0.00180703
0.0217452
-0.00161242
0.0218941
-0.0014149
0.0220216
-0.00121448
0.0221286
-0.00102301
0.0222151
-0.000790703
0.0222804
-0.000579125
0.0223245
-0.000404961
0.0223475
-0.000266289
-0.000160738
0.0223495
0.00580506
-0.0127052
-0.00499733
0.00660969
-0.0117461
0.00741282
-0.0107259
0.00820801
-0.00979875
0.00899685
-0.00914095
0.0097785
-0.00856313
0.0105447
-0.00796585
0.0113044
-0.00757749
0.0120462
-0.00711212
0.0127699
-0.00673212
0.0134791
-0.00640057
0.0141669
-0.00606407
0.0148275
-0.00577212
0.0154666
-0.00549861
0.0160825
-0.0052258
0.016668
-0.00499476
0.0172255
-0.00478037
0.0177569
-0.00455438
0.0182617
-0.00433039
0.0187376
-0.00414341
0.0191855
-0.00397184
0.0196076
-0.00376945
0.0200041
-0.00356538
0.0203751
-0.00335855
0.0207203
-0.0032124
0.0210412
-0.00301433
0.0213382
-0.0028091
0.0216114
-0.00260032
0.0218609
-0.00238757
0.0220875
-0.00222389
0.0222911
-0.00201059
0.0224716
-0.00179299
0.0226293
-0.00157255
0.0227641
-0.00134931
0.022877
-0.00113588
0.0229679
-0.000881578
0.0230363
-0.000647564
0.0230823
-0.000450939
0.0231059
-0.00028987
-0.000162085
0.0231073
0.00589045
-0.0135379
-0.00505782
0.00671946
-0.0125751
0.00754611
-0.0115525
0.00836439
-0.010617
0.00917558
-0.00995215
0.00997885
-0.0093664
0.0107668
-0.0087538
0.0115474
-0.00835809
0.0123106
-0.00787528
0.0130559
-0.00747752
0.013787
-0.00713165
0.0144974
-0.00677449
0.0151817
-0.00645638
0.0158452
-0.00616207
0.0164859
-0.00586655
0.0170972
-0.00560601
0.0176807
-0.00536394
0.0182384
-0.00511205
0.0187694
-0.00486138
0.0192711
-0.00464513
0.0197441
-0.00444485
0.0201905
-0.0042159
0.0206104
-0.00398525
0.0210038
-0.00375192
0.0213697
-0.00357836
0.0217101
-0.00335471
0.0220251
-0.00312411
0.0223149
-0.0028901
0.0225796
-0.00265225
0.0228196
-0.00246395
0.0230352
-0.00222613
0.0232263
-0.00198407
0.023393
-0.00173927
0.0235354
-0.00149175
0.0236544
-0.00125481
0.0237499
-0.000977084
0.0238216
-0.00071926
0.0238695
-0.00049882
0.0238936
-0.000314034
-0.000162737
0.0238943
0.00598469
-0.0143976
-0.00512491
0.00684036
-0.0134308
0.0076929
-0.0124051
0.00853665
-0.0114608
0.00937258
-0.0107881
0.0101999
-0.0101937
0.0110118
-0.00956571
0.0118154
-0.00916176
0.0126018
-0.00866162
0.0133705
-0.00824623
0.0141247
-0.00788584
0.0148586
-0.00750842
0.0155671
-0.0071649
0.0162551
-0.00685003
0.0169207
-0.00653215
0.0175574
-0.00624271
0.0181666
-0.00597321
0.01875
-0.00569546
0.0193066
-0.00541799
0.0198337
-0.00517216
0.0203314
-0.00494261
0.0208019
-0.00468638
0.0212449
-0.00442827
0.0216604
-0.00416743
0.0220472
-0.00396511
0.0224071
-0.00371461
0.0227403
-0.00345732
0.0230469
-0.00319669
0.0233269
-0.00293232
0.0235807
-0.00271772
0.0238085
-0.00245392
0.0240104
-0.00218594
0.0241864
-0.00191529
0.0243367
-0.00164201
0.0244619
-0.00138001
0.0245622
-0.00107736
0.0246372
-0.000794295
0.024687
-0.000548624
0.0247117
-0.000338733
-0.000162585
0.0247116
0.00608663
-0.0152867
-0.00519761
0.00697108
-0.0143152
0.0078517
-0.0132857
0.00872308
-0.0123322
0.00958597
-0.011651
0.0104395
-0.0110472
0.0112774
-0.0104037
0.0121062
-0.00999057
0.0129176
-0.00947301
0.0137112
-0.00903988
0.01449
-0.0086646
0.0152486
-0.008267
0.0159822
-0.00789852
0.0166952
-0.0075631
0.017386
-0.00722293
0.0180483
-0.00690496
0.0186832
-0.00660815
0.0192922
-0.00630443
0.0198742
-0.00599999
0.0204263
-0.00572428
0.0209486
-0.00546491
0.0214429
-0.0051807
0.021909
-0.00489432
0.0223465
-0.00460503
0.0227541
-0.00437267
0.0231336
-0.00409412
0.0234852
-0.00380887
0.0238088
-0.00352028
0.0241044
-0.00322799
0.0243722
-0.00298547
0.0246125
-0.00269422
0.0248254
-0.00239884
0.0250109
-0.00210083
0.0251692
-0.00180028
0.0253008
-0.00151163
0.025406
-0.00118252
0.0254844
-0.000872724
0.0255361
-0.000600349
0.0255613
-0.000363907
-0.000161505
0.0255602
0.00619539
-0.016207
-0.00527514
0.00711062
-0.0152305
0.00802137
-0.0141965
0.00892244
-0.0132333
0.00981434
-0.0125429
0.0106961
-0.011929
0.0115621
-0.0112696
0.012418
-0.0108465
0.0132562
-0.0103113
0.0140765
-0.00986013
0.0148813
-0.00946942
0.0156658
-0.00905153
0.0164256
-0.00865828
0.0171646
-0.00830209
0.0178812
-0.00793953
0.0185694
-0.00759319
0.0192303
-0.00726903
0.019865
-0.00693912
0.0204724
-0.00660742
0.0210496
-0.00630148
0.0215964
-0.00601175
0.0221146
-0.00569886
0.0226037
-0.0053834
0.0230634
-0.00506471
0.0234919
-0.00480117
0.0238911
-0.00449338
0.0242611
-0.00417891
0.0246019
-0.00386104
0.0249134
-0.00353945
0.0251953
-0.00326743
0.0254484
-0.00294727
0.0256725
-0.00262298
0.0258678
-0.0022961
0.0260342
-0.00196674
0.0261724
-0.00164981
0.0262826
-0.00129266
0.0263644
-0.000954594
0.0264181
-0.000653982
0.0264437
-0.000389483
-0.000159369
0.0264415
0.0063103
-0.0171604
-0.0053569
0.00725824
-0.0161784
0.00820106
-0.0151393
0.00913378
-0.014166
0.0100567
-0.0134658
0.0109687
-0.012841
0.0118646
-0.0121655
0.0127495
-0.0117314
0.0136164
-0.0111782
0.0144649
-0.0107087
0.0152974
-0.0103019
0.0161093
-0.0098634
0.0168964
-0.00944536
0.0176623
-0.00906804
0.0184055
-0.00868277
0.0191204
-0.00830807
0.0198077
-0.00795635
0.0204685
-0.00759991
0.0211017
-0.00724056
0.0217041
-0.00690397
0.0222757
-0.00658331
0.0228178
-0.00624101
0.0233301
-0.00589563
0.023812
-0.00554663
0.0242616
-0.00525077
0.0246808
-0.00491257
0.0250695
-0.00456765
0.0254277
-0.00421919
0.0257551
-0.00386692
0.0260515
-0.00356386
0.0263176
-0.00321329
0.0265532
-0.00285859
0.0267584
-0.00250129
0.0269332
-0.00214154
0.0270781
-0.00179469
0.0271933
-0.00140787
0.0272786
-0.00103995
0.0273342
-0.000709515
0.0273601
-0.000415401
-0.000156063
0.0273568
0.00643087
-0.0181488
-0.00544244
0.00741339
-0.0171609
0.00839018
-0.0161161
0.00935643
-0.0151322
0.0103122
-0.0144215
0.0112564
-0.0137852
0.012184
-0.0130932
0.0130998
-0.0126472
0.0139971
-0.0120755
0.0148756
-0.0115871
0.0157373
-0.0111636
0.016578
-0.0107041
0.0173936
-0.010261
0.0181877
-0.00986208
0.0189586
-0.00945367
0.0197009
-0.00905042
0.0204154
-0.00867082
0.0211028
-0.00828737
0.0217622
-0.00789987
0.0223903
-0.00753213
0.0229869
-0.00717991
0.0235533
-0.00680743
0.024089
-0.00643127
0.0245934
-0.00605101
0.0250643
-0.00572173
0.0255037
-0.00535196
0.0259114
-0.00497534
0.0262872
-0.00459499
0.026631
-0.00421067
0.0269421
-0.00387502
0.0272214
-0.00349256
0.0274687
-0.0031059
0.027684
-0.00271661
0.0278673
-0.00232488
0.0280191
-0.00194642
0.0281395
-0.00152828
0.0282284
-0.00112885
0.0282858
-0.000766957
0.028312
-0.000441617
-0.000151498
0.0283075
0.00655677
-0.0191741
-0.00553147
0.00757571
-0.0181799
0.00858834
-0.0171287
0.00958995
-0.0161338
0.0105804
-0.015412
0.0115586
-0.0147635
0.0125199
-0.0140544
0.0134683
-0.0135956
0.0143978
-0.013005
0.0153078
-0.0124972
0.0162003
-0.0120561
0.0170713
-0.011575
0.0179169
-0.0111067
0.0187403
-0.0106855
0.01954
-0.0102533
0.0203107
-0.00982121
0.0210532
-0.00941328
0.0217681
-0.00900223
0.0224542
-0.00858599
0.0231086
-0.00818652
0.0237307
-0.00780205
0.0243218
-0.00739856
0.0248813
-0.00699072
0.0254085
-0.00657821
0.0259011
-0.00621442
0.0263611
-0.00581189
0.026788
-0.00540232
0.0271818
-0.00498874
0.0275421
-0.00457098
0.0278683
-0.0042012
0.0281611
-0.00378534
0.0284203
-0.00336518
0.028646
-0.0029423
0.0288381
-0.00251694
0.0289968
-0.00210516
0.0291226
-0.00165399
0.0292151
-0.00122137
0.0292745
-0.000826341
0.029301
-0.00046812
-0.000145625
0.0292951
0.00668781
-0.0202381
-0.0056238
0.007745
-0.0192371
0.00879529
-0.018179
0.0098341
-0.0171726
0.0108611
-0.016439
0.0118752
-0.0157775
0.0128717
-0.0150509
0.0138546
-0.0145785
0.0148179
-0.0139684
0.0157612
-0.0134405
0.0166862
-0.012981
0.0175889
-0.0124778
0.0184659
-0.0119837
0.0193199
-0.0115395
0.0201496
-0.0110829
0.0209499
-0.0106215
0.0217213
-0.0101847
0.0224644
-0.00974536
0.0231781
-0.00929967
0.0238593
-0.00886781
0.0245076
-0.00845033
0.025124
-0.00801493
0.0257077
-0.00757445
0.0262582
-0.00712868
0.026773
-0.00672925
0.0272539
-0.00629275
0.0277005
-0.00584896
0.0281126
-0.00540081
0.0284898
-0.0049482
0.0288314
-0.00454276
0.029138
-0.00409196
0.0294095
-0.00363671
0.0296458
-0.00317861
0.0298468
-0.00271797
0.0300128
-0.00227112
0.030144
-0.00178518
0.0302403
-0.00131764
0.0303017
-0.000887738
0.0303285
-0.000494938
-0.000138438
0.0303213
0.00682394
-0.0213427
-0.00571935
0.00792121
-0.0203343
0.00901099
-0.0192688
0.0100888
-0.0182505
0.0111542
-0.0175043
0.0122058
-0.0168292
0.0132395
-0.0160846
0.0142585
-0.0155976
0.0152575
-0.0149673
0.0162357
-0.0144187
0.0171946
-0.01394
0.0181307
-0.0134139
0.0190405
-0.0128935
0.0199265
-0.0124255
0.0207874
-0.0119438
0.0216184
-0.0114525
0.0224198
-0.0109861
0.0231921
-0.0105177
0.0239342
-0.0100418
0.0246432
-0.00957678
0.0253183
-0.00912546
0.0259606
-0.00865719
0.0265692
-0.00818307
0.0271435
-0.00770296
0.027681
-0.00726674
0.0281832
-0.00679504
0.02865
-0.00631571
0.0290808
-0.00583162
0.0294753
-0.00534273
0.0298326
-0.00490008
0.0301535
-0.00441277
0.0304376
-0.00392082
0.0306848
-0.00342585
0.0308951
-0.00292822
0.0310685
-0.00244453
0.0312053
-0.00192204
0.0313055
-0.0014178
0.031369
-0.000951263
0.0313962
-0.000522149
-0.000129991
0.0313878
0.0069652
-0.0224897
-0.00581818
0.0081044
-0.0214735
0.00923552
-0.0203999
0.0103541
-0.0193691
0.0114597
-0.0186098
0.0125508
-0.0179203
0.0136233
-0.0171571
0.0146802
-0.0166545
0.0157165
-0.0160035
0.0167312
-0.0154335
0.0177258
-0.0149346
0.0186968
-0.0143849
0.0196409
-0.0138375
0.0205603
-0.0133449
0.0214537
-0.0128372
0.0223166
-0.0123154
0.0231491
-0.0118186
0.0239517
-0.0113203
0.0247232
-0.0108133
0.0254607
-0.0103143
0.0261635
-0.00982823
0.0268324
-0.00932609
0.0274666
-0.00881725
0.0280653
-0.00830166
0.028626
-0.00782749
0.0291503
-0.0073193
0.0296377
-0.00680309
0.0300877
-0.00628166
0.0305
-0.00575502
0.0308735
-0.00527359
0.0312089
-0.00474818
0.031506
-0.00421789
0.0317645
-0.00368436
0.0319843
-0.003148
0.0321654
-0.00262567
0.0323082
-0.0020648
0.0324124
-0.00152206
0.0324782
-0.00101707
0.032506
-0.000549883
-0.000120399
0.0324964
0.00711176
-0.0236811
-0.00592042
0.00829477
-0.0226566
0.00946908
-0.0215742
0.0106304
-0.0205304
0.0117778
-0.0197573
0.0129102
-0.0190527
0.0140233
-0.0182702
0.01512
-0.0177512
0.0161952
-0.0170787
0.0172482
-0.0164865
0.0182801
-0.0159665
0.0192876
-0.0153924
0.0202674
-0.0148174
0.0212217
-0.0142992
0.022149
-0.0137645
0.023045
-0.0132114
0.0239099
-0.0126835
0.0247439
-0.0121543
0.0255458
-0.0116152
0.0263128
-0.0110813
0.0270441
-0.0105595
0.0277404
-0.0100224
0.0284009
-0.00947773
0.0290247
-0.0089255
0.0296094
-0.00841214
0.0301562
-0.00786613
0.0306648
-0.00731166
0.0311346
-0.00675145
0.0315651
-0.00618557
0.0319553
-0.00566376
0.0323057
-0.00509863
0.0326162
-0.00452832
0.0328863
-0.00395451
0.033116
-0.00337766
0.0333052
-0.00281484
0.0334541
-0.00221376
0.0335627
-0.00163065
0.033631
-0.00108539
0.0336595
-0.000578327
-0.000109838
0.0336489
0.00726389
-0.0249187
-0.00602629
0.00849261
-0.0238853
0.00971199
-0.0227936
0.0109178
-0.0217362
0.0121091
-0.0209486
0.0132845
-0.0202281
0.01444
-0.0194257
0.0155782
-0.0188894
0.0166941
-0.0181947
0.017787
-0.0175794
0.0188579
-0.0170374
0.0199034
-0.0164379
0.0209205
-0.0158345
0.0219111
-0.0152898
0.0228738
-0.0147272
0.0238043
-0.0141419
0.0247027
-0.0135819
0.0255692
-0.0130208
0.0264027
-0.0124486
0.0272002
-0.0118789
0.027961
-0.0113203
0.0286857
-0.0107471
0.0293733
-0.0101653
0.030023
-0.00957522
0.0306323
-0.0090214
0.0312023
-0.00843621
0.0317327
-0.00784205
0.0322229
-0.00724158
0.0326722
-0.00663491
0.0330796
-0.0060711
0.0334455
-0.0054646
0.0337698
-0.00485257
0.034052
-0.00423672
0.0342919
-0.00361758
0.0344895
-0.00301241
0.0346449
-0.00236922
0.0347582
-0.00174387
0.0348292
-0.00115646
0.0348586
-0.000607725
-9.8549e-05
0.0348474
0.00742192
-0.0262045
-0.00613609
0.0086983
-0.0251617
0.00996468
-0.02406
0.0112169
-0.0229884
0.0124539
-0.0221856
0.0136742
-0.0214484
0.014874
-0.0206255
0.0160554
-0.0200708
0.0172138
-0.0193531
0.0183484
-0.018714
0.0194598
-0.0181488
0.0205451
-0.0175232
0.0216011
-0.0168905
0.0226295
-0.0163182
0.0236289
-0.0157266
0.0245953
-0.0151083
0.0255286
-0.0145152
0.0264289
-0.0139211
0.027295
-0.0133147
0.0281241
-0.012708
0.0289154
-0.0121116
0.0296693
-0.011501
0.0303849
-0.010881
0.0310613
-0.0102516
0.031696
-0.00965605
0.03229
-0.00903025
0.0328429
-0.00839493
0.033354
-0.00775267
0.0338227
-0.00710365
0.0342478
-0.00649619
0.0346298
-0.00584661
0.0349684
-0.00519111
0.0352631
-0.00453144
0.0355137
-0.00386818
0.0357201
-0.00321877
0.0358824
-0.00253156
0.0360006
-0.00186206
0.0360747
-0.00123061
0.0361054
-0.000638372
-8.68254e-05
0.0360937
0.00758627
-0.0275406
-0.00625018
0.00891232
-0.0264877
0.0102277
-0.0253754
0.0115282
-0.024289
0.0128128
-0.0234702
0.0140799
-0.0227155
0.0153258
-0.0218714
0.0165523
-0.0212973
0.017755
-0.0205558
0.018933
-0.019892
0.0200868
-0.0193027
0.0212134
-0.0186498
0.0223099
-0.0179869
0.0233776
-0.0173859
0.0244153
-0.0167643
0.025419
-0.016112
0.0263884
-0.0154846
0.0273238
-0.0148565
0.0282238
-0.0142147
0.0290856
-0.0135699
0.0299085
-0.0129344
0.0306926
-0.0122852
0.0314372
-0.0116255
0.0321412
-0.0109556
0.032802
-0.0103169
0.0334208
-0.00964902
0.0339969
-0.00897102
0.0345296
-0.00828539
0.0350184
-0.0075924
0.0354618
-0.0069396
0.0358604
-0.00624522
0.0362137
-0.00554448
0.0365215
-0.00483916
0.0367832
-0.00412992
0.0369988
-0.00343434
0.0371684
-0.00270117
0.0372919
-0.0019856
0.0373695
-0.00130819
0.0374018
-0.000670607
-7.50049e-05
0.0373899
0.00775742
-0.0289291
-0.00636898
0.00913518
-0.0278655
0.0105015
-0.0267417
0.0118525
-0.0256399
0.0131867
-0.0248044
0.0145025
-0.0240313
0.0157964
-0.0231653
0.0170699
-0.0225708
0.0183187
-0.0218047
0.0195418
-0.0211151
0.0207397
-0.0205006
0.0219094
-0.0198195
0.023048
-0.0191255
0.0241567
-0.0184946
0.0252341
-0.0178418
0.0262765
-0.0171544
0.0272836
-0.0164917
0.0282553
-0.0158282
0.0291904
-0.0151498
0.0300862
-0.0144657
0.0309417
-0.0137899
0.0317572
-0.0131007
0.0325316
-0.0124
0.0332641
-0.0116881
0.033952
-0.0110048
0.0345963
-0.0102933
0.0351963
-0.00957106
0.0357514
-0.00884045
0.0362608
-0.00810182
0.0367232
-0.00740195
0.037139
-0.006661
0.0375077
-0.00591321
0.0378289
-0.0051604
0.0381023
-0.00440329
0.0383275
-0.00365959
0.0385049
-0.00287851
0.0386342
-0.00211489
0.0387156
-0.00138959
0.0387498
-0.000704803
-6.34534e-05
0.0387382
0.00793588
-0.030372
-0.00649292
0.00936749
-0.0292971
0.010787
-0.0281612
0.0121903
-0.0270433
0.0135761
-0.0261901
0.0149427
-0.0253979
0.0162865
-0.0245092
0.0176089
-0.0238932
0.0189058
-0.0231015
0.020176
-0.0223853
0.0214197
-0.0217443
0.0226342
-0.021034
0.0238166
-0.0203078
0.0249678
-0.0196459
0.0260866
-0.0189606
0.0271693
-0.0182371
0.0282154
-0.0175378
0.0292248
-0.0168377
0.0301964
-0.0161213
0.0311273
-0.0153967
0.0320166
-0.0146792
0.0328644
-0.0139486
0.0336698
-0.0132054
0.0344318
-0.0124501
0.0351476
-0.0117207
0.0358183
-0.010964
0.0364431
-0.0101958
0.0370212
-0.00941859
0.037552
-0.00863259
0.0380339
-0.00788391
0.0384675
-0.00709457
0.0388522
-0.00629789
0.0391875
-0.00549569
0.039473
-0.00468879
0.0397084
-0.00389501
0.0398939
-0.00306401
0.0400294
-0.00225037
0.040115
-0.00147521
0.0401515
-0.000741354
-5.25404e-05
0.0401406
0.0081222
-0.0318717
-0.0066225
0.00960986
-0.0307848
0.0110846
-0.0296359
0.0125425
-0.0285012
0.013982
-0.0276297
0.0154014
-0.0268173
0.0167973
-0.025905
0.0181706
-0.0252666
0.0195174
-0.0244483
0.0208365
-0.0237043
0.022128
-0.0230358
0.0233891
-0.0222951
0.024617
-0.0215357
0.0258125
-0.0208415
0.0269743
-0.0201224
0.0280987
-0.0193615
0.0291853
-0.0186244
0.030234
-0.0178863
0.0312432
-0.0171306
0.0322106
-0.016364
0.0331349
-0.0156035
0.0340163
-0.0148299
0.0348537
-0.0140428
0.035646
-0.0132424
0.0363908
-0.0124654
0.0370887
-0.0116619
0.037739
-0.0108462
0.038341
-0.0100205
0.0388938
-0.00918544
0.0393961
-0.00838612
0.039848
-0.00754656
0.0402492
-0.00669909
0.0405992
-0.00584559
0.0408973
-0.00498696
0.0411434
-0.00414108
0.0413375
-0.00325816
0.0414797
-0.00239248
0.0415699
-0.0015655
0.0416092
-0.000780644
-4.26399e-05
0.0415993
0.00831696
-0.0334305
-0.00675821
0.00986296
-0.0323308
0.0113952
-0.0311682
0.0129099
-0.0300159
0.0144053
-0.0291251
0.0158797
-0.0282916
0.0173297
-0.027355
0.0187559
-0.0266928
0.0201547
-0.0258471
0.0215247
-0.0250743
0.0228658
-0.024377
0.0241754
-0.0236046
0.0254506
-0.0228109
0.0266921
-0.022083
0.0278986
-0.0213288
0.0290664
-0.0205293
0.0301951
-0.0197531
0.0312843
-0.0189755
0.0323328
-0.018179
0.0333378
-0.0173691
0.0342984
-0.016564
0.0352145
-0.015746
0.036085
-0.0149133
0.0369089
-0.0140663
0.0376835
-0.0132401
0.0384096
-0.012388
0.0390863
-0.0115229
0.0397129
-0.0106471
0.0402885
-0.00976109
0.0408117
-0.0089093
0.0412828
-0.0080176
0.0417011
-0.00711742
0.0420662
-0.00621067
0.0423775
-0.00529831
0.0426348
-0.00439832
0.0428381
-0.00346143
0.0429873
-0.00254169
0.0430826
-0.00166085
0.0431251
-0.00082307
-3.40619e-05
0.0431165
0.00852074
-0.0350507
-0.00690052
0.0101274
-0.0339375
0.0117196
-0.0327603
0.0132934
-0.0315897
0.014847
-0.0306787
0.0163785
-0.0298232
0.0178847
-0.0288612
0.0193661
-0.0281742
0.0208189
-0.0272999
0.0222418
-0.0264972
0.0236346
-0.0257698
0.0249946
-0.0249646
0.026319
-0.0241353
0.0276083
-0.0233724
0.0288612
-0.0225817
0.0300741
-0.0217422
0.0312464
-0.0209255
0.0323778
-0.0201069
0.0334669
-0.019268
0.0345111
-0.0184133
0.0355092
-0.0175621
0.0364612
-0.0166981
0.037366
-0.0158181
0.0382224
-0.0149227
0.0390279
-0.0140456
0.0397831
-0.0131431
0.0404871
-0.0122269
0.0411391
-0.0112991
0.0417384
-0.0103603
0.0422832
-0.00945414
0.042774
-0.00850836
0.0432101
-0.00755349
0.0435909
-0.00659149
0.043916
-0.00562339
0.0441849
-0.00466722
0.0443978
-0.0036743
0.0445545
-0.00269843
0.0446553