/*--------------------------------*- C++ -*----------------------------------*\
| =========                 |                                                 |
| \\      /  F ield         | OpenFOAM: The Open Source CFD Toolbox           |
|  \\    /   O peration     | Version:  3.0.1                                 |
|   \\  /    A nd           | Web:      www.OpenFOAM.org                      |
|    \\/     M anipulation  |                                                 |
\*---------------------------------------------------------------------------*/
FoamFile
{
    version     2.0;
    format      ascii;
    class       volVectorField;
    location    "200";
    object      U;
}
// * * * * * * * * * * * * * * * * * * * * * * * * * * * * * * * * * * * * * //

dimensions      [0 1 -1 0 0 0 0];

internalField   nonuniform List<vector> 
58000
(
(0.335634 0.967158 -1.67197e-21)
(0.45623 1.11156 -3.69921e-21)
(0.58958 1.17457 1.13775e-20)
(0.712856 1.16757 -2.09605e-20)
(0.813164 1.11312 -4.13552e-20)
(0.893457 1.03593 0)
(0.958036 0.954478 -2.61689e-20)
(1.00852 0.872566 -1.021e-21)
(1.05052 0.795014 2.94847e-20)
(1.08477 0.726855 0)
(1.11276 0.66614 3.22691e-20)
(1.1366 0.612644 2.99998e-20)
(1.15674 0.568063 -9.83859e-20)
(1.17138 0.530073 3.47733e-20)
(1.18222 0.49655 3.05462e-20)
(1.19056 0.467397 6.29775e-20)
(1.19637 0.44217 -9.2225e-20)
(1.2004 0.419584 0)
(1.20319 0.398542 5.95713e-20)
(1.20502 0.378768 -8.89517e-20)
(1.20592 0.360599 5.2373e-22)
(1.2059 0.343661 2.92698e-20)
(1.20544 0.32744 1.38505e-20)
(1.20413 0.311415 0)
(1.20263 0.296159 2.6319e-20)
(1.20026 0.281845 -1.30839e-20)
(1.19757 0.26809 0)
(1.19465 0.254709 3.3468e-22)
(1.19112 0.241433 0)
(1.18756 0.228754 -1.22433e-20)
(1.18345 0.216801 5.99485e-20)
(1.17923 0.205232 -5.95436e-20)
(1.17492 0.193908 -3.51974e-20)
(1.17034 0.182685 9.21613e-20)
(1.16555 0.171647 -2.2906e-20)
(1.15865 0.160743 -1.13472e-20)
(1.14837 0.150365 1.67951e-20)
(1.13777 0.1413 -1.07918e-20)
(1.12863 0.133635 1.6079e-20)
(1.12797 0.128566 0)
(0.528471 0.621447 -8.88081e-21)
(0.617218 0.699798 0)
(0.714516 0.762577 -3.67775e-24)
(0.81149 0.812114 3.80964e-24)
(0.905841 0.847315 2.26344e-20)
(0.994778 0.861694 1.80596e-20)
(1.07153 0.857455 -3.70614e-20)
(1.13706 0.838639 1.10641e-20)
(1.19091 0.808147 5.63393e-20)
(1.23182 0.771538 -3.09569e-20)
(1.26287 0.730567 0)
(1.28496 0.687136 -5.9747e-20)
(1.29887 0.645799 3.9193e-20)
(1.30799 0.607182 2.19064e-20)
(1.31374 0.569795 -2.20642e-20)
(1.31682 0.535332 0)
(1.31806 0.504588 2.2037e-20)
(1.3181 0.476146 0)
(1.31724 0.449147 8.37707e-20)
(1.31573 0.424053 -1.25649e-19)
(1.31378 0.401386 0)
(1.31149 0.380283 1.02765e-19)
(1.30888 0.359998 -8.14321e-20)
(1.30588 0.340314 0)
(1.30268 0.322046 -2.96604e-20)
(1.29933 0.305187 0)
(1.29573 0.288906 0)
(1.29189 0.273033 2.85918e-20)
(1.28771 0.257483 0)
(1.28342 0.242865 -2.78641e-20)
(1.27908 0.229184 3.68364e-20)
(1.27454 0.215846 -3.60721e-20)
(1.26978 0.202723 2.67968e-20)
(1.26474 0.189755 -1.78415e-20)
(1.25944 0.177157 0)
(1.25375 0.165129 -2.61646e-20)
(1.24798 0.154264 1.72364e-20)
(1.24234 0.144864 0)
(1.23726 0.136395 -4.26592e-21)
(1.2334 0.129125 8.37128e-21)
(0.574947 0.561919 3.66121e-21)
(0.613859 0.622852 -1.55531e-21)
(0.664575 0.677812 -3.0676e-21)
(0.725211 0.722689 2.74455e-22)
(0.791767 0.755487 -2.88159e-22)
(0.86144 0.776809 -8.82559e-21)
(0.928915 0.785951 1.25804e-20)
(0.99401 0.783954 0)
(1.05396 0.772341 -1.93276e-20)
(1.10552 0.752792 1.78535e-20)
(1.15061 0.726758 2.34117e-20)
(1.18874 0.696219 -1.3506e-21)
(1.21865 0.663993 0)
(1.24224 0.630872 5.39883e-20)
(1.26111 0.597204 -2.84331e-20)
(1.27516 0.565003 0)
(1.28515 0.535064 0)
(1.29239 0.506642 0)
(1.29758 0.479441 -1.46694e-20)
(1.30098 0.454025 1.57577e-20)
(1.30289 0.430709 0)
(1.30375 0.408782 1.47618e-20)
(1.3038 0.387749 0)
(1.30318 0.36752 0)
(1.30195 0.348705 2.99586e-20)
(1.3002 0.331124 -5.93562e-20)
(1.29802 0.314122 5.9382e-20)
(1.29547 0.297648 1.43133e-20)
(1.29257 0.281657 -2.92161e-20)
(1.28938 0.266599 -2.14238e-20)
(1.28595 0.252359 0)
(1.28225 0.238473 1.38259e-20)
(1.27829 0.224918 0)
(1.27406 0.211689 2.69522e-22)
(1.2696 0.198998 -2.04578e-20)
(1.26486 0.186902 1.3753e-20)
(1.25982 0.175374 0)
(1.25472 0.164497 0)
(1.24986 0.154034 -3.3077e-21)
(1.24537 0.14354 -3.5034e-21)
(0.647656 0.508576 4.05477e-21)
(0.673477 0.552242 1.17135e-21)
(0.704693 0.594601 -4.83703e-22)
(0.742656 0.633077 1.59329e-23)
(0.786877 0.664848 1.46989e-22)
(0.836551 0.689076 0)
(0.888126 0.70427 -4.01747e-21)
(0.940547 0.711045 0)
(0.992069 0.709745 -1.04216e-20)
(1.03945 0.701198 -2.78691e-21)
(1.08335 0.686478 -1.449e-20)
(1.12296 0.666684 1.37468e-20)
(1.15628 0.643756 -1.84397e-20)
(1.18433 0.618567 -3.84018e-20)
(1.20829 0.591469 -2.07771e-20)
(1.22755 0.564141 2.11302e-20)
(1.24248 0.537602 -2.02885e-20)
(1.25431 0.511579 0)
(1.2637 0.486017 -9.73393e-21)
(1.27081 0.4616 -4.52034e-20)
(1.2759 0.438807 4.53909e-20)
(1.27954 0.417132 -1.18319e-20)
(1.28205 0.39617 0)
(1.28359 0.375876 0)
(1.28421 0.356865 3.39414e-20)
(1.2841 0.339032 -4.57131e-20)
(1.28339 0.321765 4.53824e-20)
(1.28214 0.305 -2.81546e-22)
(1.2804 0.288695 -9.00979e-20)
(1.27825 0.273284 5.65125e-20)
(1.27576 0.258697 -2.21335e-20)
(1.27292 0.24449 -1.11596e-20)
(1.26975 0.230634 4.39444e-20)
(1.26626 0.217115 -1.6307e-20)
(1.2625 0.20413 5.55028e-21)
(1.25853 0.191745 -5.26934e-21)
(1.25436 0.179814 -5.23649e-21)
(1.25005 0.16832 0)
(1.24573 0.157214 2.61214e-21)
(1.24152 0.146452 -2.73525e-21)
(0.691489 0.476127 -1.9142e-21)
(0.709731 0.509882 -3.36574e-21)
(0.731423 0.543652 7.17653e-22)
(0.757796 0.576 1.34039e-21)
(0.789307 0.604872 -5.44882e-22)
(0.826091 0.629308 0)
(0.866106 0.647258 1.59553e-21)
(0.908548 0.658769 1.59286e-21)
(0.952069 0.663686 0)
(0.993912 0.661966 6.36671e-21)
(1.03433 0.65446 7.86011e-21)
(1.07237 0.641896 0)
(1.10586 0.625472 -1.27153e-20)
(1.13534 0.606025 1.38423e-20)
(1.16164 0.584059 0)
(1.18378 0.560939 -2.82827e-20)
(1.20179 0.537618 7.8227e-20)
(1.21675 0.514094 7.25134e-22)
(1.22922 0.490485 -1.54892e-20)
(1.23918 0.467503 0)
(1.24683 0.445673 0)
(1.25275 0.424646 0)
(1.25734 0.404143 1.70931e-20)
(1.26077 0.384184 0)
(1.26303 0.365369 0)
(1.26433 0.347604 0)
(1.2649 0.33035 2.69921e-20)
(1.26483 0.313566 -3.58635e-20)
(1.26416 0.297232 4.42217e-20)
(1.26295 0.281759 -2.70119e-20)
(1.26129 0.267067 0)
(1.25921 0.252745 0)
(1.25675 0.238778 -8.91459e-21)
(1.25393 0.225159 2.63797e-20)
(1.2508 0.212075 -1.50595e-22)
(1.24744 0.199565 -2.15374e-20)
(1.24385 0.187442 1.30214e-20)
(1.24005 0.175649 0)
(1.23608 0.164185 0)
(1.23196 0.153079 -4.3239e-21)
(0.728035 0.451677 0)
(0.742077 0.478404 2.29015e-21)
(0.758126 0.505536 3.36888e-21)
(0.77734 0.53231 -2.2563e-21)
(0.80049 0.557371 -1.57633e-22)
(0.828136 0.580046 4.58592e-23)
(0.859266 0.598354 8.14163e-22)
(0.893373 0.612074 3.67158e-21)
(0.929612 0.62067 1.00149e-21)
(0.965742 0.623583 -9.14688e-21)
(1.00178 0.621394 -2.64279e-22)
(1.03684 0.614459 -2.08948e-20)
(1.06884 0.603413 3.17599e-20)
(1.09794 0.588999 -1.71016e-20)
(1.12471 0.571718 2.03693e-20)
(1.14804 0.552615 -1.94601e-20)
(1.1677 0.53257 0)
(1.18457 0.51175 0)
(1.19906 0.490358 0)
(1.21105 0.469087 0)
(1.22061 0.448503 -1.39614e-20)
(1.22832 0.428408 -1.33128e-20)
(1.23459 0.408615 4.08019e-20)
(1.23955 0.389189 -2.77642e-20)
(1.24318 0.370719 0)
(1.24569 0.353161 1.37161e-20)
(1.24737 0.336044 -2.10791e-20)
(1.2483 0.319344 2.85819e-20)
(1.24854 0.303051 -4.96771e-20)
(1.24814 0.28756 1.4326e-20)
(1.24719 0.272807 -2.83629e-20)
(1.24577 0.258413 2.85017e-20)
(1.24391 0.244363 -3.5062e-22)
(1.24164 0.23065 7.24115e-21)
(1.23902 0.217449 0)
(1.23612 0.204794 0)
(1.23297 0.192497 -6.94993e-21)
(1.22955 0.180498 6.98037e-21)
(1.2259 0.168824 0)
(1.22201 0.157547 -3.36699e-21)
(0.756426 0.432908 9.18666e-22)
(0.76799 0.454735 -1.20212e-21)
(0.780805 0.476993 -4.94694e-22)
(0.795765 0.499258 7.94362e-22)
(0.813625 0.520661 1.23906e-21)
(0.835052 0.540838 2.97907e-25)
(0.859638 0.558138 -9.03257e-22)
(0.887161 0.572298 -6.18896e-22)
(0.917194 0.582668 0)
(0.948028 0.588405 0)
(0.979619 0.589866 3.43549e-21)
(1.01121 0.587122 0)
(1.04094 0.580355 0)
(1.06872 0.57016 -1.34225e-20)
(1.09495 0.556989 7.01833e-21)
(1.11844 0.541588 -1.5292e-20)
(1.13882 0.52471 8.54802e-21)
(1.15675 0.506625 0)
(1.17254 0.48758 9.13578e-21)
(1.18593 0.46822 1.06904e-20)
(1.19693 0.449113 -2.13975e-20)
(1.20605 0.430182 3.25145e-20)
(1.21366 0.411324 2.59091e-22)
(1.21991 0.392644 -2.20343e-20)
(1.2247 0.374714 1.16797e-20)
(1.22827 0.357538 -2.26531e-20)
(1.23092 0.340713 -2.2889e-20)
(1.23274 0.324231 -1.12194e-20)
(1.23379 0.308102 1.19063e-20)
(1.23411 0.292706 -2.85409e-20)
(1.2338 0.277992 4.63788e-20)
(1.23297 0.263611 -1.1481e-22)
(1.23165 0.249553 -4.64967e-20)
(1.22987 0.235816 5.96709e-21)
(1.22769 0.222564 0)
(1.22519 0.209831 1.71115e-20)
(1.22239 0.197433 -5.92509e-21)
(1.21928 0.185313 0)
(1.21589 0.173509 2.83281e-21)
(1.21221 0.162105 3.10645e-21)
(0.779663 0.417821 -9.18737e-22)
(0.789568 0.436052 3.8048e-22)
(0.800298 0.454655 1.83967e-22)
(0.812541 0.473376 7.34344e-24)
(0.826946 0.491634 9.668e-24)
(0.844135 0.509271 -4.19382e-22)
(0.863997 0.524984 -2.28627e-22)
(0.886489 0.538573 1.03742e-21)
(0.911467 0.549426 -1.08702e-21)
(0.937684 0.556618 0)
(0.965118 0.560357 1.85083e-21)
(0.993184 0.560529 -7.22153e-21)
(1.02027 0.556996 3.75201e-21)
(1.0462 0.550193 -1.42577e-20)
(1.07121 0.540492 1.70512e-20)
(1.09416 0.528366 -1.74087e-20)
(1.11456 0.514427 1.9538e-20)
(1.1329 0.498986 0)
(1.14939 0.4823 -7.86483e-21)
(1.16369 0.46494 8.25691e-21)
(1.1757 0.44745 -8.58141e-21)
(1.18588 0.429847 1.70897e-20)
(1.19456 0.412097 -3.48789e-20)
(1.20185 0.394333 1.76925e-20)
(1.20763 0.377103 9.4504e-21)
(1.21212 0.360452 9.54124e-21)
(1.21562 0.344051 -1.87102e-20)
(1.21823 0.327908 3.77725e-20)
(1.22001 0.312047 0)
(1.22099 0.296835 2.89478e-20)
(1.22127 0.282239 -2.84493e-20)
(1.22097 0.267943 1.91437e-20)
(1.22014 0.25394 -1.43269e-20)
(1.21881 0.240232 4.92915e-21)
(1.21704 0.226978 4.68255e-21)
(1.21489 0.214211 -2.39024e-22)
(1.2124 0.20176 -4.90364e-21)
(1.20957 0.189572 0)
(1.20641 0.177693 -2.36196e-21)
(1.20292 0.166209 2.49077e-21)
(0.79894 0.405313 0)
(0.807688 0.420835 0)
(0.817008 0.436651 -2.55405e-21)
(0.827436 0.452599 1.1437e-21)
(0.839512 0.46827 -3.02015e-22)
(0.85377 0.48362 6.62967e-22)
(0.870233 0.497638 4.22121e-22)
(0.888949 0.510197 0)
(0.90994 0.520781 0)
(0.932312 0.528509 -3.21135e-21)
(0.956084 0.533504 -5.09643e-21)
(0.980838 0.535557 -1.08746e-22)
(1.00524 0.534331 9.658e-21)
(1.02907 0.530122 -1.86303e-21)
(1.05247 0.523216 -6.4985e-21)
(1.07442 0.513864 0)
(1.09433 0.502533 0)
(1.11259 0.489533 0)
(1.12929 0.475104 0)
(1.14405 0.459728 -1.26998e-20)
(1.15671 0.443909 1.28752e-20)
(1.16763 0.427727 2.03297e-20)
(1.17712 0.4112 -2.82246e-20)
(1.18523 0.394479 7.37099e-21)
(1.19182 0.378079 0)
(1.19708 0.362082 -1.51953e-20)
(1.20132 0.346224 1.53251e-20)
(1.20463 0.330531 -8.06145e-21)
(1.20707 0.315041 0)
(1.20864 0.300107 -8.16534e-21)
(1.20946 0.285714 8.21488e-21)
(1.20966 0.271577 3.20051e-20)
(1.20928 0.257698 -3.21291e-20)
(1.20836 0.244082 1.61068e-20)
(1.20696 0.230883 -4.13271e-21)
(1.20514 0.218138 -1.99858e-20)
(1.20294 0.205686 8.06015e-21)
(1.20036 0.193482 3.994e-21)
(1.19742 0.181573 -5.99888e-21)
(1.19412 0.170045 2.09033e-21)
(0.815224 0.394672 0)
(0.823114 0.408095 0)
(0.831424 0.421742 1.4866e-21)
(0.840577 0.435502 -1.26588e-21)
(0.851021 0.449071 -1.88457e-23)
(0.863202 0.462466 -2.41152e-22)
(0.877192 0.474891 -1.44302e-22)
(0.893081 0.486282 -4.86734e-22)
(0.910971 0.496226 1.71137e-21)
(0.930223 0.503936 -2.36732e-21)
(0.950893 0.509492 -1.48458e-22)
(0.972698 0.512655 -3.29703e-23)
(0.994562 0.512985 3.48796e-21)
(1.01625 0.510673 5.75779e-21)
(1.03789 0.505928 7.41523e-21)
(1.05855 0.498835 -4.26051e-23)
(1.07765 0.489726 -7.49959e-21)
(1.09545 0.478885 0)
(1.11199 0.46652 -8.9202e-21)
(1.12686 0.453026 9.57441e-21)
(1.13983 0.438848 -1.07802e-20)
(1.15122 0.424108 5.70249e-21)
(1.16126 0.408855 2.99809e-22)
(1.16998 0.393249 6.45335e-21)
(1.1772 0.377766 -1.21885e-20)
(1.18309 0.362518 0)
(1.18796 0.347298 1.90385e-20)
(1.19186 0.332147 -3.23179e-20)
(1.19487 0.317116 2.62797e-20)
(1.19698 0.302542 -2.0167e-20)
(1.19828 0.288428 -1.33805e-20)
(1.19894 0.274522 1.34748e-20)
(1.19898 0.260831 1.35285e-20)
(1.19845 0.247368 -1.35918e-20)
(1.19739 0.23428 6.7867e-21)
(1.19587 0.221609 1.69684e-22)
(1.19393 0.209205 0)
(1.19159 0.197031 0)
(1.18887 0.185135 3.30646e-21)
(1.18574 0.1736 0)
(0.829169 0.385421 7.7898e-22)
(0.836395 0.397182 1.6122e-22)
(0.843947 0.409109 -1.64752e-22)
(0.852165 0.421121 4.10031e-24)
(0.86142 0.432981 0)
(0.872083 0.444734 3.14464e-22)
(0.884241 0.455747 1.3083e-22)
(0.897994 0.465995 -1.33387e-22)
(0.913479 0.475155 1.05068e-21)
(0.93023 0.482545 -1.27552e-21)
(0.948328 0.488228 2.32283e-21)
(0.967591 0.491968 0)
(0.987158 0.493292 -3.27642e-21)
(1.00682 0.492312 1.16312e-21)
(1.02668 0.489182 1.04783e-20)
(1.04593 0.483868 -1.13533e-20)
(1.06401 0.476591 1.92733e-20)
(1.08111 0.467598 -6.68903e-21)
(1.09721 0.457059 7.97934e-21)
(1.11192 0.445284 -8.56746e-21)
(1.12495 0.432655 0)
(1.13655 0.419315 9.52815e-21)
(1.14691 0.405331 9.1737e-21)
(1.15603 0.390863 0)
(1.16373 0.376343 0)
(1.17011 0.361905 1.01294e-20)
(1.17548 0.347389 5.22769e-21)
(1.17988 0.33285 -5.22113e-21)
(1.18338 0.318348 1.07503e-20)
(1.18595 0.304202 1.67395e-20)
(1.18769 0.290434 -1.13139e-20)
(1.18875 0.276822 0)
(1.18917 0.26338 -1.15006e-20)
(1.18899 0.250126 1.15571e-20)
(1.18825 0.237202 5.78392e-21)
(1.18701 0.224654 -2.74644e-23)
(1.18533 0.212346 -5.82411e-21)
(1.18321 0.200246 0)
(1.18068 0.188404 -8.625e-21)
(1.17772 0.176897 0)
(0.841254 0.377228 -9.66288e-22)
(0.847946 0.387648 1.02123e-21)
(0.854905 0.398187 8.0555e-22)
(0.862407 0.408783 -7.42435e-22)
(0.870763 0.419246 -5.23141e-22)
(0.880284 0.429629 -2.89139e-22)
(0.891053 0.43942 9.70613e-24)
(0.903168 0.448619 -3.2637e-22)
(0.916775 0.456974 -1.22031e-22)
(0.931524 0.463901 1.12148e-21)
(0.94751 0.469457 -3.47557e-21)
(0.964622 0.473427 -4.85942e-22)
(0.982172 0.475343 8.5299e-21)
(0.999984 0.475268 -6.25691e-21)
(1.01815 0.473311 -4.23263e-21)
(1.03598 0.469365 5.23911e-21)
(1.05295 0.463564 -1.02918e-20)
(1.0692 0.456112 -5.39105e-21)
(1.08469 0.447143 1.27617e-20)
(1.09901 0.436894 -1.29817e-20)
(1.11189 0.425684 0)
(1.1235 0.413659 0)
(1.134 0.400897 -6.46376e-22)
(1.14335 0.387548 0)
(1.15136 0.374 0)
(1.1581 0.3604 -9.16244e-21)
(1.16385 0.346627 -8.76629e-21)
(1.16865 0.332745 -8.97697e-21)
(1.17255 0.318823 8.84311e-21)
(1.17551 0.30516 -5.19484e-21)
(1.17763 0.291792 -2.92124e-22)
(1.17905 0.278527 9.75019e-21)
(1.17981 0.265386 0)
(1.17994 0.252389 1.46927e-20)
(1.17949 0.239678 -9.95249e-21)
(1.17852 0.227299 -9.82317e-21)
(1.17707 0.215131 5.00179e-21)
(1.17516 0.203146 -2.48801e-21)
(1.17281 0.191396 7.62377e-21)
(1.17001 0.179953 0)
(0.851832 0.369852 6.10084e-22)
(0.858083 0.379172 -4.12104e-22)
(0.86456 0.388575 -1.96475e-22)
(0.871494 0.398011 6.26658e-22)
(0.879148 0.40732 5.56454e-22)
(0.887782 0.416559 -6.10953e-23)
(0.897471 0.425304 5.41425e-23)
(0.908307 0.433571 5.57134e-22)
(0.920428 0.44116 -1.21133e-21)
(0.933567 0.447574 -1.03062e-21)
(0.947822 0.452868 1.44023e-21)
(0.963128 0.456852 -1.97758e-21)
(0.978935 0.459087 4.1673e-21)
(0.995097 0.459603 2.88252e-21)
(1.0117 0.458481 6.42002e-21)
(1.02816 0.455567 4.00423e-22)
(1.04402 0.450932 -4.42823e-21)
(1.05934 0.444743 1.90417e-20)
(1.07411 0.437101 -2.5298e-20)
(1.08792 0.428178 2.21877e-20)
(1.1005 0.418236 -5.8817e-21)
(1.11196 0.407418 0)
(1.12243 0.3958 -5.38029e-22)
(1.13187 0.383521 0)
(1.14004 0.370926 0)
(1.14702 0.358164 0)
(1.15305 0.34515 5.33069e-22)
(1.15816 0.33195 2.40876e-20)
(1.16237 0.318638 -2.4311e-20)
(1.16565 0.305495 -2.46347e-22)
(1.16809 0.292568 -1.683e-20)
(1.16982 0.279694 8.40297e-21)
(1.17087 0.266895 -8.22676e-21)
(1.17128 0.254199 -1.29136e-20)
(1.17109 0.241742 -4.17258e-21)
(1.17035 0.229573 8.61647e-21)
(1.16911 0.217585 0)
(1.16739 0.205754 -4.20316e-21)
(1.16522 0.194131 -5.27137e-21)
(1.16257 0.182785 1.10725e-21)
(0.861172 0.363118 5.28908e-22)
(0.867047 0.371523 0)
(0.873122 0.379981 -1.43431e-21)
(0.879591 0.388454 5.41516e-22)
(0.886678 0.396803 4.60363e-22)
(0.894603 0.405082 -7.76665e-23)
(0.903433 0.412935 0)
(0.913249 0.420385 -2.37941e-22)
(0.924177 0.427274 5.22987e-22)
(0.936008 0.433175 -9.31358e-22)
(0.948837 0.438145 -1.35773e-21)
(0.962631 0.442018 -3.32074e-22)
(0.976942 0.444391 -2.84846e-22)
(0.991653 0.445277 0)
(1.00685 0.444735 -8.41468e-21)
(1.02204 0.44259 9.00932e-21)
(1.0368 0.438868 0)
(1.0512 0.433701 -7.79076e-21)
(1.06519 0.427163 4.48458e-21)
(1.07841 0.419377 -9.60173e-21)
(1.09057 0.410552 4.4963e-21)
(1.10177 0.400819 0)
(1.1121 0.390252 5.62305e-21)
(1.12149 0.378976 -5.9059e-21)
(1.12972 0.367293 0)
(1.13683 0.355351 -1.29356e-20)
(1.14304 0.343089 1.35151e-20)
(1.14836 0.330577 7.09401e-21)
(1.15281 0.317891 -1.37383e-20)
(1.15635 0.305292 0)
(1.15904 0.292835 2.30313e-22)
(1.16103 0.280382 -1.42806e-20)
(1.16233 0.26796 7.56534e-21)
(1.16299 0.2556 0)
(1.16302 0.243433 3.83236e-21)
(1.16249 0.23151 -3.84629e-21)
(1.16144 0.219737 3.64373e-21)
(1.1599 0.208094 3.86071e-21)
(1.15788 0.196631 7.50233e-21)
(1.15536 0.185413 3.71244e-21)
(0.869483 0.356893 0)
(0.875029 0.364526 0)
(0.880759 0.372191 4.79526e-23)
(0.886837 0.379856 -9.73616e-22)
(0.893453 0.387396 -2.90465e-23)
(0.900797 0.394865 -1.82221e-22)
(0.908926 0.401955 0)
(0.917911 0.408695 0)
(0.927866 0.414957 5.23949e-22)
(0.93862 0.420373 -5.37442e-22)
(0.950266 0.424999 2.73127e-22)
(0.962787 0.428692 -1.08047e-21)
(0.975818 0.43109 0)
(0.989264 0.432192 0)
(1.00321 0.432045 4.2116e-21)
(1.01723 0.430468 -4.91487e-21)
(1.03096 0.427454 5.38778e-22)
(1.04445 0.423109 4.00959e-21)
(1.05765 0.417484 -6.91281e-21)
(1.07024 0.410662 0)
(1.08192 0.402808 4.09362e-21)
(1.09278 0.394041 4.37155e-21)
(1.10287 0.384426 0)
(1.11213 0.374076 5.03187e-21)
(1.12032 0.363251 -1.04473e-20)
(1.12747 0.352095 0)
(1.13377 0.340567 5.89482e-21)
(1.13922 0.328735 -5.74045e-21)
(1.14384 0.316676 1.767e-20)
(1.14757 0.304631 0)
(1.15047 0.292664 1.24464e-20)
(1.15266 0.280654 6.50689e-21)
(1.15417 0.268634 6.19807e-21)
(1.15503 0.256637 -6.43217e-21)
(1.15526 0.244788 6.481e-21)
(1.15491 0.233142 0)
(1.15403 0.221614 -3.36535e-21)
(1.15264 0.21019 0)
(1.15077 0.198917 -3.36752e-21)
(1.14837 0.187856 -3.4083e-21)
(0.876927 0.351077 3.4893e-22)
(0.882182 0.358053 -4.99786e-22)
(0.887608 0.365043 1.2275e-21)
(0.893347 0.372021 4.42822e-22)
(0.899562 0.378876 -3.13577e-22)
(0.906418 0.385654 2.15381e-22)
(0.913962 0.392091 -4.45733e-23)
(0.922258 0.398215 -2.93744e-22)
(0.931404 0.40392 -2.16581e-22)
(0.941262 0.40889 -4.55641e-22)
(0.951915 0.413177 1.50533e-22)
(0.963359 0.416659 2.30352e-21)
(0.97529 0.419011 -2.36558e-21)
(0.987633 0.420226 -3.8802e-22)
(1.00047 0.420344 -4.53246e-22)
(1.01343 0.419183 9.18437e-21)
(1.02621 0.416716 -4.70043e-21)
(1.03884 0.413029 5.28771e-21)
(1.05127 0.408156 -6.37519e-21)
(1.0632 0.402147 1.40348e-23)
(1.07437 0.395132 -3.80063e-21)
(1.08484 0.387216 3.92055e-21)
(1.09463 0.378457 -9.50804e-23)
(1.10367 0.368952 0)
(1.11176 0.358925 0)
(1.11887 0.348512 -9.19716e-21)
(1.12519 0.337689 -4.76675e-21)
(1.13071 0.326519 -4.92009e-21)
(1.13543 0.315078 -3.40848e-22)
(1.13929 0.30359 -1.58972e-20)
(1.14234 0.29212 5.17808e-21)
(1.14469 0.280567 0)
(1.14638 0.268967 -1.13359e-20)
(1.14741 0.257354 1.10779e-20)
(1.1478 0.245848 0)
(1.14761 0.234504 5.69561e-21)
(1.14688 0.223248 -2.87465e-21)
(1.14563 0.212068 -5.73215e-21)
(1.14388 0.201011 4.30082e-21)
(1.14159 0.190133 -4.24959e-21)
(0.883634 0.345592 0)
(0.888625 0.352002 0)
(0.89378 0.358413 -9.47562e-22)
(0.899219 0.364803 0)
(0.905086 0.37107 0)
(0.911522 0.377256 3.8166e-23)
(0.918568 0.383129 -3.91338e-23)
(0.92628 0.388718 2.77681e-22)
(0.934744 0.393933 6.24275e-22)
(0.943843 0.398498 1.48536e-21)
(0.953654 0.402463 2.11306e-21)
(0.964178 0.405724 1.97411e-21)
(0.97516 0.40799 -1.72393e-21)
(0.986541 0.409251 1.93679e-22)
(0.998393 0.409541 -2.96677e-21)
(1.01041 0.408684 7.52513e-21)
(1.02231 0.406641 -4.01544e-21)
(1.03413 0.403482 4.57076e-21)
(1.04581 0.399227 0)
(1.05711 0.393903 1.20159e-20)
(1.06775 0.387611 -1.2109e-20)
(1.07779 0.380442 -6.47627e-21)
(1.08724 0.372446 -1.43512e-20)
(1.09603 0.363705 -4.07157e-22)
(1.10394 0.354414 -2.77193e-22)
(1.11097 0.344699 1.67126e-20)
(1.11725 0.334544 4.44441e-21)
(1.12278 0.324012 1.31684e-20)
(1.12755 0.313174 -1.35054e-20)
(1.13148 0.302236 4.82275e-21)
(1.13464 0.291265 9.52842e-21)
(1.13712 0.280177 -9.60001e-21)
(1.13893 0.269008 0)
(1.14009 0.257793 -5.09463e-21)
(1.14063 0.246648 0)
(1.14057 0.235626 1.36056e-22)
(1.13997 0.224664 -5.03666e-21)
(1.13883 0.213752 0)
(1.13719 0.202936 4.8955e-21)
(1.13501 0.192264 1.48696e-22)
(0.889709 0.340381 6.24191e-22)
(0.894458 0.346299 -1.15138e-22)
(0.899366 0.352207 1.48844e-22)
(0.904535 0.358088 -2.91781e-24)
(0.910092 0.363847 8.92558e-22)
(0.916161 0.369522 -3.36046e-23)
(0.922775 0.374906 8.6533e-23)
(0.929983 0.380028 1.69588e-22)
(0.937862 0.384811 3.33185e-22)
(0.94631 0.389012 -1.20837e-21)
(0.955397 0.392679 -1.21453e-21)
(0.965129 0.395722 0)
(0.975287 0.39788 3.87701e-21)
(0.985823 0.399143 8.1805e-23)
(0.996805 0.39954 -5.2101e-21)
(1.00797 0.398906 -3.36123e-21)
(1.01907 0.397194 3.52445e-21)
(1.03014 0.394459 3.96347e-21)
(1.04112 0.390713 -4.35685e-21)
(1.05179 0.385968 0)
(1.06192 0.380298 5.66226e-21)
(1.07151 0.373783 6.43029e-21)
(1.08059 0.366466 7.68951e-22)
(1.08909 0.358416 -1.95956e-20)
(1.0968 0.3498 -6.70728e-21)
(1.10368 0.340733 0)
(1.10988 0.331209 7.59575e-21)
(1.11537 0.321285 -1.56991e-20)
(1.12014 0.311029 8.24465e-21)
(1.12412 0.30063 -3.00648e-22)
(1.12734 0.290154 7.99409e-21)
(1.1299 0.279532 1.66791e-20)
(1.13181 0.268799 -4.18037e-21)
(1.13308 0.257993 0)
(1.13372 0.247222 -4.26761e-21)
(1.13378 0.23654 4.5603e-21)
(1.13328 0.22589 0)
(1.13225 0.215266 4.31997e-21)
(1.13071 0.204709 -5.6873e-21)
(1.12861 0.194264 3.38399e-21)
(0.895236 0.335399 0)
(0.899762 0.340885 0)
(0.904441 0.346353 -3.29741e-22)
(0.909364 0.351789 -2.5923e-24)
(0.914642 0.357105 -1.24865e-21)
(0.920383 0.362334 0)
(0.926615 0.367292 -1.62847e-23)
(0.933383 0.372004 -4.07785e-22)
(0.940752 0.376406 0)
(0.948634 0.380282 0)
(0.957092 0.383675 0)
(0.966133 0.38651 -1.49126e-21)
(0.975569 0.388552 1.38926e-21)
(0.98536 0.38979 -2.40335e-22)
(0.99557 0.390251 -1.48433e-22)
(1.00597 0.389779 -7.10547e-23)
(1.01635 0.388326 -2.53833e-22)
(1.02672 0.385935 -3.7264e-21)
(1.03705 0.382612 0)
(1.04712 0.378356 0)
(1.05673 0.373223 0)
(1.06588 0.367282 1.57599e-20)
(1.07459 0.360567 -1.01919e-20)
(1.08277 0.35314 1.18452e-20)
(1.09024 0.34514 3.50369e-22)
(1.09696 0.336675 -6.43466e-21)
(1.10303 0.327742 6.49279e-21)
(1.10845 0.318395 -6.90018e-21)
(1.11318 0.308698 1.37432e-20)
(1.11716 0.298822 -4.63876e-22)
(1.12041 0.288834 -7.60442e-21)
(1.12303 0.278674 -4.6923e-22)
(1.125 0.26838 -3.45735e-21)
(1.12635 0.257989 7.70268e-21)
(1.12708 0.247601 1.36252e-22)
(1.12722 0.237271 -3.9097e-21)
(1.12682 0.226949 3.9182e-21)
(1.12588 0.216629 -1.18179e-20)
(1.12442 0.20635 2.83484e-21)
(1.12241 0.19615 9.72886e-22)
(0.900287 0.330613 -1.733e-22)
(0.904603 0.335717 3.09841e-22)
(0.909069 0.340796 1.23951e-21)
(0.913764 0.34584 5.02903e-22)
(0.918786 0.350766 4.49506e-22)
(0.924231 0.355604 -7.08302e-23)
(0.930121 0.360186 1.27482e-24)
(0.936497 0.364538 -1.31033e-22)
(0.943415 0.368603 6.64238e-22)
(0.950798 0.372187 -1.14639e-21)
(0.958702 0.375332 8.63268e-22)
(0.967136 0.377972 1.78913e-22)
(0.975935 0.379895 -2.87862e-21)
(0.985065 0.381092 -3.57336e-21)
(0.994585 0.381586 2.18911e-21)
(1.0043 0.381235 4.91228e-21)
(1.01401 0.379985 2.97168e-21)
(1.02374 0.377876 -8.97328e-21)
(1.03346 0.374907 0)
(1.04297 0.371067 0)
(1.05209 0.366399 4.01534e-21)
(1.0608 0.360961 9.19173e-21)
(1.06913 0.354783 -9.50996e-21)
(1.07699 0.347916 -4.65956e-22)
(1.0842 0.34048 -4.18913e-22)
(1.09072 0.332572 -3.76714e-22)
(1.09665 0.324191 5.55495e-21)
(1.10195 0.315389 5.94622e-21)
(1.10662 0.306226 -1.2678e-20)
(1.11058 0.296855 5.91808e-21)
(1.11383 0.287344 6.55204e-21)
(1.11647 0.277641 -3.49956e-22)
(1.11848 0.267785 2.50854e-22)
(1.11989 0.25781 6.83195e-21)
(1.12069 0.247812 -3.43546e-21)
(1.1209 0.237845 -6.93423e-21)
(1.12057 0.227862 3.48524e-21)
(1.1197 0.21786 3.60007e-21)
(1.11832 0.207873 -2.14493e-22)
(1.11638 0.197932 0)
(0.904919 0.325999 1.08166e-21)
(0.909038 0.330762 -1.96366e-22)
(0.913303 0.335494 -6.17727e-22)
(0.917785 0.34019 -4.33864e-22)
(0.922569 0.34477 -4.97228e-23)
(0.927743 0.349261 4.71891e-23)
(0.933323 0.353511 -2.16726e-23)
(0.939345 0.357544 1.67012e-22)
(0.945861 0.361308 0)
(0.952799 0.36463 5.92403e-22)
(0.96021 0.367551 -8.24292e-22)
(0.968103 0.37001 2.2394e-21)
(0.976334 0.371817 -3.87168e-21)
(0.984873 0.372964 1.56356e-21)
(0.993775 0.373472 3.97164e-21)
(1.00286 0.373209 -6.28862e-21)
(1.01197 0.372122 0)
(1.02112 0.370244 2.86561e-21)
(1.03027 0.367573 0)
(1.03925 0.36409 3.25182e-21)
(1.04789 0.359826 -1.13705e-20)
(1.05618 0.354833 7.63914e-21)
(1.06413 0.349134 -8.45306e-21)
(1.07166 0.342773 0)
(1.0786 0.335852 -4.57908e-21)
(1.08491 0.328457 0)
(1.09067 0.320593 -1.04442e-20)
(1.09585 0.312305 1.05343e-20)
(1.10043 0.303649 0)
(1.10433 0.294766 -1.1574e-20)
(1.10756 0.285717 -7.95143e-23)
(1.1102 0.276464 5.69386e-21)
(1.11224 0.267041 -5.96869e-21)
(1.11368 0.257483 0)
(1.11452 0.247879 0)
(1.11479 0.23828 0)
(1.11452 0.228646 9.10252e-21)
(1.11372 0.218974 -3.10591e-21)
(1.11241 0.20929 -1.92763e-22)
(1.11054 0.199621 0)
(0.909181 0.32154 -2.29619e-22)
(0.913112 0.325995 -1.77492e-22)
(0.917188 0.330417 5.22713e-22)
(0.921469 0.3348 -4.08105e-22)
(0.926031 0.339071 -5.6605e-23)
(0.930953 0.343252 2.12525e-22)
(0.936249 0.347206 -4.50531e-23)
(0.941949 0.350953 -1.96945e-22)
(0.9481 0.354449 5.43851e-22)
(0.954636 0.357536 4.92061e-22)
(0.961605 0.360252 0)
(0.969013 0.362545 1.03116e-21)
(0.976733 0.364242 1.53128e-22)
(0.98474 0.365334 -1.56696e-21)
(0.993083 0.365842 3.05211e-21)
(1.00161 0.365644 0)
(1.01016 0.364689 0)
(1.01877 0.363004 9.82669e-21)
(1.02739 0.360585 4.73571e-22)
(1.03587 0.35741 -3.05311e-21)
(1.04406 0.353501 6.27384e-21)
(1.05194 0.348902 -6.75431e-21)
(1.05952 0.343632 -3.35756e-21)
(1.06673 0.337728 -8.10537e-21)
(1.07339 0.331277 1.25587e-20)
(1.07948 0.324357 8.92474e-21)
(1.08506 0.316975 -2.27194e-20)
(1.0901 0.309171 1.39668e-20)
(1.09457 0.300998 9.89072e-21)
(1.09839 0.292581 -5.09789e-21)
(1.10159 0.283983 0)
(1.1042 0.275169 5.10115e-21)
(1.10624 0.266173 0)
(1.1077 0.257029 0)
(1.10858 0.247821 5.4693e-21)
(1.10889 0.238595 -1.08407e-20)
(1.10867 0.229317 -1.10595e-20)
(1.10793 0.219982 -5.35872e-21)
(1.10668 0.210612 -4.82549e-21)
(1.10488 0.201224 -6.68528e-22)
(0.913113 0.317224 0)
(0.916867 0.321401 0)
(0.920761 0.325541 -9.78843e-22)
(0.924852 0.329642 2.36376e-23)
(0.929206 0.333633 2.59107e-22)
(0.933892 0.337535 -1.4985e-22)
(0.938925 0.341223 1.08444e-23)
(0.944329 0.344713 0)
(0.950145 0.347968 -2.97659e-22)
(0.956317 0.350843 -1.35503e-21)
(0.962883 0.353373 1.22367e-21)
(0.969853 0.355513 1.59698e-21)
(0.97711 0.357104 0)
(0.984634 0.35814 -2.40454e-21)
(0.99247 0.35864 -5.96337e-21)
(1.00048 0.358491 6.47451e-21)
(1.00853 0.357644 3.35866e-22)
(1.01663 0.356121 -1.31676e-20)
(1.02476 0.353919 4.96065e-21)
(1.03278 0.351011 -1.60716e-20)
(1.04054 0.347414 -4.1713e-22)
(1.04803 0.343165 4.26642e-22)
(1.05525 0.33828 4.52757e-22)
(1.06213 0.332791 7.21653e-21)
(1.06852 0.326772 3.12238e-22)
(1.07438 0.320291 -7.29422e-21)
(1.07977 0.313358 -4.17137e-21)
(1.08465 0.306011 -4.61128e-21)
(1.089 0.298295 8.62861e-21)
(1.09274 0.290327 -4.65802e-21)
(1.09587 0.282163 0)
(1.09846 0.273777 -1.33905e-22)
(1.10048 0.265201 -1.418e-20)
(1.10195 0.256467 -2.44383e-23)
(1.10284 0.247654 4.87792e-21)
(1.10319 0.238804 5.07951e-21)
(1.10302 0.229886 5.09448e-21)
(1.10232 0.220894 5.09354e-21)
(1.10113 0.211844 7.29263e-21)
(1.09939 0.202744 0)
(0.916752 0.313044 2.82792e-23)
(0.920335 0.316968 -5.24131e-22)
(0.924057 0.320851 4.58568e-22)
(0.927965 0.324695 -3.89491e-22)
(0.932122 0.328432 -1.76537e-22)
(0.936588 0.332081 0)
(0.941374 0.335527 -1.0461e-23)
(0.946503 0.338785 0)
(0.952012 0.34182 -5.00641e-22)
(0.957847 0.344502 8.49234e-22)
(0.964046 0.346864 -1.17676e-21)
(0.970615 0.348862 -1.53443e-21)
(0.97745 0.350354 -1.7939e-21)
(0.984533 0.351334 -9.87592e-23)
(0.991905 0.35182 5.14265e-21)
(0.999442 0.351707 7.52137e-23)
(1.00702 0.350948 3.17212e-22)
(1.01466 0.349564 0)
(1.02233 0.347548 8.92746e-21)
(1.02991 0.344876 -4.53482e-21)
(1.03727 0.341555 5.31723e-21)
(1.04438 0.337619 -5.33085e-21)
(1.05126 0.333082 1.76561e-20)
(1.05782 0.32797 0)
(1.06395 0.322346 0)
(1.06957 0.316273 4.58206e-22)
(1.07476 0.30976 -7.54528e-21)
(1.07948 0.302841 0)
(1.08369 0.29556 -3.19562e-22)
(1.08733 0.28802 7.98129e-21)
(1.0904 0.280276 -3.00573e-22)
(1.09294 0.272306 8.35785e-21)
(1.09494 0.264141 4.42072e-21)
(1.0964 0.255813 -8.54088e-21)
(1.09731 0.247391 -8.89057e-24)
(1.09768 0.238918 4.40167e-21)
(1.09754 0.230363 0)
(1.0969 0.221717 2.08006e-21)
(1.09577 0.212992 -2.33072e-21)
(1.09409 0.204183 -4.05877e-21)
(0.920126 0.308998 5.68144e-23)
(0.923546 0.312689 8.87433e-22)
(0.927102 0.316336 -1.12015e-22)
(0.930837 0.319944 5.85145e-22)
(0.934806 0.323449 1.97621e-22)
(0.939063 0.326866 8.56045e-23)
(0.943618 0.330091 -2.01869e-23)
(0.94849 0.333137 0)
(0.953713 0.335973 9.34996e-22)
(0.959238 0.338478 0)
(0.965098 0.340684 0)
(0.971298 0.342552 0)
(0.977745 0.343951 3.33913e-21)
(0.984423 0.344875 0)
(0.991368 0.345343 2.42317e-22)
(0.99847 0.345256 -8.08178e-21)
(1.00562 0.344571 5.92212e-21)
(1.01283 0.343305 3.35771e-21)
(1.02007 0.341453 0)
(1.02724 0.338987 -4.09632e-21)
(1.03421 0.335912 -4.76111e-21)
(1.04097 0.332257 -3.73726e-24)
(1.04751 0.328036 -5.80739e-21)
(1.05377 0.323268 5.18603e-21)
(1.05962 0.318009 5.84436e-21)
(1.06502 0.312314 4.07226e-22)
(1.07001 0.306193 -6.34006e-21)