/*--------------------------------*- C++ -*----------------------------------*\
| =========                 |                                                 |
| \\      /  F ield         | OpenFOAM: The Open Source CFD Toolbox           |
|  \\    /   O peration     | Version:  3.0.1                                 |
|   \\  /    A nd           | Web:      www.OpenFOAM.org                      |
|    \\/     M anipulation  |                                                 |
\*---------------------------------------------------------------------------*/
FoamFile
{
    version     2.0;
    format      ascii;
    class       volScalarField;
    location    "500";
    object      nuTilda;
}
// * * * * * * * * * * * * * * * * * * * * * * * * * * * * * * * * * * * * * //

dimensions      [0 2 -1 0 0 0 0];

internalField   nonuniform List<scalar> 
58000
(
0.000796815
0.000702575
0.000614062
0.000561391
0.000529429
0.000496601
0.000472749
0.000454655
0.000439984
0.000430882
0.000425615
0.000421822
0.000419091
0.000418611
0.000418547
0.000418942
0.000419755
0.000421482
0.000423693
0.000425943
0.000428336
0.000430644
0.00043305
0.000435206
0.000437101
0.000438788
0.000440199
0.000441357
0.000442372
0.000442969
0.000443291
0.000443311
0.000442971
0.000442107
0.000440245
0.000437326
0.000433816
0.000430144
0.00042648
0.0004241
0.00304562
0.00274344
0.00242908
0.00212226
0.0018651
0.00164212
0.00146653
0.00133416
0.00122679
0.00114493
0.00108438
0.00103562
0.000994974
0.000966726
0.000945228
0.00092718
0.000912168
0.0009016
0.000893947
0.00088702
0.000881265
0.000873678
0.000866654
0.000859881
0.000852304
0.000843917
0.000834938
0.000826054
0.000818201
0.00081009
0.000801467
0.000792385
0.000782827
0.000773904
0.000763973
0.000752536
0.000740024
0.000727039
0.000714027
0.0007026
0.00530967
0.00496578
0.00457538
0.00414807
0.00376274
0.00341503
0.00311692
0.00287405
0.00266495
0.00249636
0.00236692
0.00225957
0.00216614
0.00209626
0.00204216
0.00199539
0.0019537
0.00192106
0.0018966
0.00187528
0.00185526
0.0018339
0.00181518
0.00179833
0.00178121
0.00176335
0.00174478
0.00172634
0.00171005
0.00169213
0.00167196
0.00165003
0.00162654
0.00160236
0.00157684
0.00154922
0.00152032
0.0014905
0.00146086
0.00143414
0.00754581
0.00718844
0.00676168
0.00628644
0.00582908
0.00539282
0.00500637
0.00467533
0.00437674
0.00412527
0.0039246
0.00375346
0.00360115
0.00348248
0.00338824
0.00330544
0.00323065
0.00316927
0.00312105
0.00307937
0.0030384
0.0029973
0.00296149
0.00292976
0.0028986
0.00286668
0.00283408
0.00280049
0.00276853
0.00273589
0.00270138
0.00266568
0.00262713
0.00258698
0.00254514
0.00250058
0.00245457
0.00240711
0.0023595
0.00231437
0.00975043
0.00939445
0.00895768
0.00846001
0.00796895
0.00748692
0.00703661
0.00664304
0.00627641
0.00595545
0.00569022
0.00545777
0.00524612
0.00507582
0.00493725
0.00481341
0.00470022
0.00460494
0.00452757
0.00445879
0.00439235
0.00432737
0.00427042
0.00422004
0.00417165
0.00412128
0.00406895
0.00401681
0.00396777
0.00391887
0.00386698
0.00381213
0.00375464
0.00369627
0.00363579
0.00357171
0.0035047
0.0034367
0.00336829
0.00330191
0.0119246
0.0115753
0.0111402
0.0106359
0.010131
0.00962214
0.00913921
0.00870207
0.00828631
0.00791345
0.00759518
0.00730962
0.00704414
0.00682427
0.00664152
0.00647583
0.00632278
0.00619125
0.00608246
0.00598293
0.00588741
0.0057951
0.00571369
0.0056415
0.00557022
0.00549787
0.0054244
0.00535223
0.00528334
0.00521408
0.00514279
0.00506765
0.00498897
0.0049094
0.00482766
0.00474181
0.00465226
0.0045613
0.00446954
0.00437938
0.0140732
0.013733
0.0133053
0.0128041
0.0122966
0.0117776
0.0112756
0.0108132
0.0103633
0.0099503
0.00959198
0.00926437
0.00895394
0.00868897
0.00846465
0.00825871
0.00806731
0.00789873
0.00775527
0.007624
0.00749822
0.00737702
0.00726936
0.00717144
0.00707573
0.00697952
0.00688288
0.00678693
0.00669643
0.00660522
0.00651067
0.00641339
0.00631184
0.00620824
0.00610383
0.00599486
0.00588147
0.00576591
0.005649
0.00553317
0.0162003
0.0158704
0.0154527
0.0149592
0.014454
0.0139354
0.0134257
0.0129502
0.0124788
0.0120388
0.0116482
0.0112851
0.0109369
0.0106361
0.0103762
0.0101334
0.00990353
0.00969905
0.00952274
0.00936049
0.00920445
0.00905402
0.00891723
0.00879282
0.0086723
0.00855053
0.0084277
0.008307
0.00819141
0.00807623
0.0079583
0.00783617
0.00771062
0.00758252
0.00745365
0.00731994
0.00718183
0.0070398
0.00689597
0.00675284
0.0183096
0.0179905
0.0175843
0.0171017
0.0166037
0.0160896
0.0155788
0.0150974
0.014614
0.0141555
0.0137436
0.0133547
0.0129753
0.0126424
0.0123508
0.0120754
0.0118121
0.0115747
0.0113673
0.0111758
0.0109896
0.0108082
0.0106424
0.0104914
0.0103434
0.0101948
0.0100461
0.00989857
0.00975806
0.009618
0.00947488
0.00932708
0.00917552
0.00902143
0.00886676
0.00870699
0.0085422
0.0083729
0.00820126
0.00802983
0.0204041
0.0200958
0.0197018
0.0192316
0.0187435
0.0182368
0.0177289
0.017245
0.0167576
0.0162887
0.015862
0.0154531
0.0150516
0.0146935
0.0143754
0.0140717
0.0137786
0.013511
0.0132735
0.0130512
0.0128357
0.0126263
0.0124321
0.0122528
0.0120784
0.0119028
0.011726
0.0115519
0.0113844
0.0112187
0.0110487
0.0108749
0.0106958
0.0105156
0.0103347
0.0101483
0.00995598
0.00975849
0.00955818
0.00935759
0.0224863
0.0221887
0.021807
0.0213499
0.0208731
0.020376
0.0198744
0.0193926
0.0189043
0.0184297
0.0179934
0.0175711
0.0171524
0.0167725
0.0164312
0.0161029
0.0157836
0.0154891
0.0152248
0.0149753
0.0147327
0.0144941
0.014272
0.0140664
0.0138643
0.0136623
0.0134585
0.0132571
0.0130624
0.0128702
0.0126736
0.012473
0.0122662
0.0120589
0.0118511
0.0116382
0.0114173
0.0111907
0.010961
0.0107306
0.0245581
0.024271
0.0239015
0.0234578
0.022993
0.0225066
0.0220132
0.0215361
0.0210498
0.0205729
0.0201294
0.019699
0.0192685
0.018873
0.0185138
0.0181649
0.0178227
0.0175041
0.0172152
0.0169402
0.01667
0.0164039
0.0161555
0.0159223
0.0156936
0.0154635
0.0152329
0.0150036
0.0147815
0.0145624
0.0143407
0.0141139
0.0138797
0.0136449
0.0134095
0.0131688
0.0129195
0.012664
0.0124047
0.0121442
0.0266212
0.0263441
0.0259866
0.0255563
0.0251039
0.0246289
0.0241448
0.0236743
0.0231922
0.0227162
0.0222695
0.0218329
0.0213922
0.0209859
0.0206124
0.0202463
0.0198833
0.0195431
0.019232
0.018935
0.0186408
0.018349
0.0180741
0.0178142
0.017558
0.0173002
0.0170422
0.0167878
0.0165398
0.0162941
0.0160462
0.0157928
0.015531
0.0152676
0.0150049
0.0147364
0.0144587
0.0141741
0.0138852
0.0135944
0.0286767
0.0284093
0.0280636
0.0276465
0.0272066
0.0267434
0.0262693
0.0258063
0.02533
0.0248569
0.0244097
0.0239699
0.023523
0.0231074
0.0227217
0.0223403
0.0219624
0.0216043
0.0212729
0.0209529
0.020636
0.0203197
0.0200172
0.0197323
0.0194528
0.01917
0.0188857
0.0186045
0.0183314
0.0180595
0.0177841
0.0175045
0.0172158
0.0169245
0.0166337
0.0163376
0.0160315
0.0157179
0.0153994
0.0150781
0.0307251
0.0304673
0.0301331
0.0297292
0.0293018
0.0288505
0.0283869
0.0279322
0.0274626
0.0269939
0.0265479
0.026107
0.0256564
0.0252337
0.0248372
0.0244453
0.0240546
0.0236812
0.0233319
0.022991
0.0226494
0.0223107
0.0219858
0.0216769
0.0213726
0.0210668
0.0207578
0.0204509
0.0201529
0.0198551
0.0195527
0.0192457
0.0189307
0.0186121
0.0182933
0.0179694
0.017635
0.0172924
0.0169442
0.0165925
0.0327669
0.0325186
0.032196
0.0318051
0.0313902
0.0309508
0.0304979
0.0300519
0.0295897
0.0291263
0.0286829
0.0282423
0.0277901
0.0273628
0.0269588
0.0265577
0.0261559
0.0257691
0.0254041
0.0250452
0.0246826
0.0243212
0.0239752
0.0236437
0.023316
0.0229873
0.0226542
0.0223224
0.0219999
0.0216767
0.0213481
0.0210149
0.0206731
0.0203271
0.0199807
0.0196291
0.0192664
0.0188949
0.018517
0.018135
0.0348028
0.034564
0.0342528
0.0338749
0.0334725
0.0330449
0.0326028
0.0321657
0.0317113
0.0312539
0.030814
0.0303749
0.0299224
0.0294922
0.0290826
0.028674
0.0282628
0.0278644
0.0274855
0.0271105
0.0267296
0.0263482
0.0259818
0.0256285
0.0252781
0.0249269
0.0245707
0.0242148
0.023868
0.0235202
0.0231659
0.0228058
0.0224386
0.0220663
0.0216927
0.0213137
0.0209229
0.0205226
0.0201153
0.0197032
0.0368332
0.0366038
0.0363039
0.0359389
0.0355491
0.0351331
0.0347017
0.0342737
0.0338274
0.0333765
0.0329407
0.032504
0.0320524
0.0316204
0.0312066
0.0307919
0.0303728
0.0299643
0.029573
0.0291836
0.0287862
0.0283866
0.0280008
0.0276272
0.0272551
0.0268809
0.0265033
0.0261245
0.025753
0.0253822
0.0250036
0.0246182
0.0242257
0.0238272
0.0234267
0.0230205
0.022602
0.0221733
0.0217369
0.0212949
0.0388585
0.0386382
0.0383494
0.0379974
0.0376212
0.0372158
0.0367949
0.036376
0.035938
0.0354939
0.0350628
0.0346291
0.0341792
0.0337465
0.0333295
0.03291
0.0324842
0.0320668
0.0316643
0.031262
0.0308495
0.030433
0.0300281
0.0296363
0.0292443
0.0288491
0.0284506
0.0280496
0.0276551
0.0272613
0.0268589
0.0264489
0.0260315
0.0256073
0.0251803
0.0247471
0.0243012
0.0238446
0.0233796
0.0229081
0.0408787
0.0406672
0.0403892
0.0400495
0.0396854
0.0392918
0.038882
0.0384727
0.038043
0.037606
0.0371799
0.0367499
0.0363025
0.0358698
0.0354506
0.0350271
0.0345956
0.0341703
0.0337578
0.0333436
0.0329175
0.0324857
0.0320638
0.0316543
0.0312434
0.0308283
0.0304095
0.0299873
0.0295707
0.0291545
0.028729
0.0282952
0.0278536
0.0274043
0.0269512
0.0264905
0.0260183
0.0255346
0.0250416
0.0245411
0.0428936
0.0426909
0.0424235
0.042096
0.0417433
0.0413612
0.0409627
0.0405644
0.0401424
0.0397124
0.0392919
0.0388661
0.0384218
0.03799
0.0375693
0.0371425
0.0367061
0.0362738
0.035852
0.0354267
0.0349882
0.0345424
0.0341049
0.0336787
0.0332498
0.0328156
0.0323771
0.0319348
0.031497
0.0310592
0.0306116
0.0301549
0.0296898
0.0292161
0.0287377
0.028251
0.0277526
0.0272421
0.0267214
0.0261925
0.044903
0.0447088
0.0444521
0.0441376
0.043795
0.043424
0.0430363
0.0426475
0.0422345
0.0418126
0.0413985
0.0409773
0.040537
0.0401065
0.0396853
0.0392558
0.038815
0.0383761
0.0379456
0.03751
0.0370598
0.036601
0.0361491
0.0357072
0.0352613
0.0348088
0.0343505
0.0338897
0.0334319
0.0329725
0.0325047
0.032026
0.0315381
0.0310408
0.030538
0.0300261
0.0295022
0.0289653
0.0284176
0.0278607
0.0469064
0.0467205
0.0464738
0.0461708
0.0458395
0.0454798
0.045103
0.0447235
0.0443195
0.0439061
0.0434998
0.0430831
0.0426479
0.0422187
0.0417985
0.0413664
0.0409217
0.0404765
0.0400375
0.0395917
0.0391306
0.0386598
0.0381943
0.0377377
0.037276
0.0368066
0.0363305
0.0358516
0.0353745
0.0348949
0.0344067
0.0339066
0.0333964
0.0328764
0.03235
0.0318139
0.0312652
0.0307028
0.0301286
0.0295443
0.0489035
0.0487258
0.0484891
0.0481968
0.0478766
0.0475285
0.0471637
0.0467922
0.046397
0.0459917
0.0455922
0.0451808
0.0447502
0.0443235
0.0439042
0.0434728
0.0430255
0.0425739
0.0421265
0.0416698
0.0411991
0.0407172
0.040239
0.0397683
0.0392922
0.0388073
0.0383145
0.0378184
0.037323
0.0368241
0.0363161
0.0357952
0.0352625
0.0347212
0.0341725
0.0336131
0.0330403
0.0324531
0.0318531
0.0312422
0.0508936
0.0507242
0.0504983
0.0502156
0.0499061
0.0495692
0.0492147
0.0488525
0.0484665
0.0480699
0.0476769
0.0472713
0.0468453
0.0464214
0.0460025
0.0455703
0.045121
0.0446663
0.0442121
0.0437453
0.0432645
0.0427719
0.0422815
0.0417966
0.0413082
0.0408092
0.0403009
0.0397885
0.0392756
0.0387584
0.0382314
0.0376908
0.0371374
0.036575
0.0360044
0.0354224
0.0348263
0.0342149
0.03359
0.0329531
0.0528759
0.0527146
0.0524978
0.0522256
0.0519272
0.0516025
0.0512571
0.0509041
0.0505277
0.050141
0.0497541
0.0493552
0.0489331
0.0485132
0.0480942
0.0476606
0.0472084
0.0467492
0.0462884
0.0458139
0.0453245
0.0448224
0.0443209
0.0438235
0.0433221
0.0428098
0.0422874
0.0417599
0.0412307
0.0406961
0.0401511
0.0395916
0.0390187
0.0384361
0.0378445
0.0372406
0.036622
0.0359873
0.0353381
0.034676
0.0548497
0.0546972
0.0544883
0.0542264
0.0539389
0.0536248
0.0532895
0.0529462
0.0525796
0.0522014
0.0518216
0.0514285
0.0510115
0.0505949
0.0501783
0.0497441
0.0492882
0.0488238
0.0483552
0.0478745
0.0473778
0.0468672
0.0463558
0.0458468
0.045332
0.0448081
0.044273
0.0437314
0.0431869
0.0426358
0.0420734
0.0414963
0.0409049
0.0403032
0.0396914
0.0390665
0.0384262
0.037769
0.0370964
0.0364099
0.0568134
0.0566684
0.0564685
0.0562175
0.0559419
0.0556371
0.055312
0.0549785
0.0546227
0.0542522
0.0538803
0.053492
0.0530811
0.0526666
0.0522507
0.0518159
0.0513589
0.0508902
0.0504145
0.0499271
0.0494235
0.0489052
0.048385
0.0478658
0.0473397
0.0468044
0.0462569
0.0457022
0.0451432
0.0445763
0.0439965
0.0434033
0.0427949
0.042175
0.0415441
0.0408991
0.0402379
0.039559
0.0388638
0.0381538
0.0587668
0.058629
0.0584382
0.058198
0.0579327
0.0576383
0.0573237
0.0570002
0.0566537
0.0562916
0.0559264
0.055544
0.0551382
0.0547281
0.0543131
0.0538762
0.0534164
0.0529424
0.0524625
0.0519699
0.0514603
0.0509354
0.0504073
0.049879
0.049343
0.048797
0.0482382
0.0476712
0.0470988
0.0465173
0.0459219
0.045313
0.044688
0.0440507
0.0434015
0.0427373
0.0420562
0.0413564
0.0406395
0.0399068
0.0607092
0.0605784
0.0603972
0.0601683
0.0599121
0.0596282
0.0593246
0.0590118
0.0586734
0.0583206
0.0579612
0.0575855
0.0571834
0.0567756
0.056361
0.0559245
0.0554622
0.0549834
0.0544991
0.0540018
0.0534871
0.0529565
0.0524216
0.0518853
0.0513403
0.0507848
0.0502156
0.0496373
0.0490524
0.0484574
0.0478477
0.0472238
0.0465832
0.0459294
0.0452626
0.0445801
0.0438799
0.0431603
0.0424226
0.041668
0.0626395
0.0625158
0.0623446
0.0621247
0.0618786
0.061606
0.0613141
0.0610097
0.0606802
0.0603354
0.0599828
0.0596132
0.0592167
0.0588107
0.0583946
0.0579571
0.0574906
0.05701
0.0565227
0.0560217
0.0555029
0.0549676
0.0544268
0.0538836
0.0533307
0.0527666
0.0521879
0.0515994
0.051003
0.0503956
0.0497726
0.0491347
0.0484793
0.0478098
0.0471266
0.0464267
0.0457083
0.0449697
0.0442121
0.0434368
0.0645569
0.0644395
0.0642767
0.0640667
0.0638314
0.0635711
0.0632888
0.062994
0.0626747
0.062337
0.0619919
0.0616278
0.0612348
0.060829
0.0604127
0.0599713
0.0595039
0.059022
0.0585326
0.0580289
0.0575069
0.0569678
0.0564222
0.0558729
0.0553132
0.0547414
0.0541544
0.0535565
0.0529496
0.0523307
0.0516954
0.0510445
0.0503752
0.0496911
0.0489923
0.048276
0.0475405
0.0467838
0.0460073
0.0452122
0.0664604
0.066349
0.0661942
0.0659942
0.0657697
0.06552
0.0652485
0.0649644
0.0646533
0.0643241
0.0639839
0.0636249
0.0632341
0.0628301
0.0624123
0.0619696
0.0615017
0.0610191
0.0605283
0.0600227
0.0594983
0.0589563
0.0584068
0.0578525
0.0572869
0.0567084
0.056114
0.0555077
0.0548913
0.0542619
0.0536152
0.0529522
0.0522699
0.0515722
0.0508589
0.0501273
0.0493755
0.0486018
0.0478073
0.0469935
0.0683494
0.0682436
0.0680968
0.0679071
0.067694
0.0674538
0.0671932
0.0669176
0.0666161
0.0662937
0.0659594
0.0656027
0.0652149
0.0648108
0.0643928
0.0639503
0.0634828
0.0630003
0.062509
0.0620023
0.0614764
0.0609324
0.0603799
0.0598215
0.059251
0.0586669
0.0580659
0.0574521
0.0568272
0.0561882
0.0555311
0.0548569
0.0541626
0.0534523
0.0527256
0.0519798
0.0512127
0.0504228
0.0496114
0.0487799
0.0702229
0.0701225
0.0699832
0.0698043
0.0696004
0.069371
0.0691192
0.0688535
0.0685599
0.0682465
0.0679159
0.0675612
0.067174
0.066771
0.0663539
0.0659127
0.0654466
0.0649651
0.064474
0.0639671
0.0634406
0.0628954
0.0623409
0.0617794
0.061205
0.060616
0.0600094
0.059389
0.0587563
0.0581087
0.0574422
0.0567578
0.0560524
0.0553305
0.0545914
0.0538335
0.0530513
0.0522458
0.0514185
0.0505707
0.07208
0.0719846
0.0718519
0.0716818
0.0714883
0.0712678
0.0710263
0.0707687
0.0704848
0.0701754
0.0698493
0.069496
0.0691111
0.0687104
0.0682954
0.0678564
0.0673926
0.066913
0.0664229
0.0659165
0.0653902
0.0648447
0.064289
0.0637254
0.0631483
0.0625553
0.0619436
0.0613174
0.0606779
0.0600226
0.0593476
0.0586539
0.0579383
0.0572055
0.0564548
0.0556846
0.0548891
0.0540696
0.0532277
0.0523648
0.0739203
0.0738292
0.0737024
0.0735397
0.0733547
0.0731443
0.0729112
0.0726636
0.0723849
0.0720819
0.0717582
0.0714079
0.0710265
0.0706292
0.0702172
0.0697813
0.0693205
0.0688434
0.0683552
0.06785
0.0673245
0.0667794
0.0662233
0.0656587
0.0650809
0.0644837
0.0638676
0.0632364
0.062591
0.0619289
0.0612464
0.0605443
0.0598195
0.0590766
0.0583151
0.0575333
0.0567255
0.0558932
0.055038
0.0541616
0.0757431
0.0756561
0.0755345
0.0753782
0.0752003
0.0749979
0.0747737
0.0745324
0.0742616
0.0739646
0.073644
0.0732974
0.0729206
0.0725274
0.0721193
0.0716871
0.07123
0.0707561
0.0702703
0.0697671
0.069243
0.068699
0.0681431
0.0675779
0.0669989
0.0663994
0.0657803
0.065145
0.0644947
0.0638268
0.063138
0.0624282
0.0616948
0.0609427
0.0601712
0.0593787
0.0585598
0.0577158
0.0568486
0.0559604
0.0775479
0.0774647
0.0773479
0.0771973
0.0770255
0.0768297
0.0766123
0.0763773
0.0761129
0.0758219
0.0755065
0.075165
0.0747935
0.0744052
0.0740014
0.0735736
0.0731208
0.0726506
0.0721678
0.071667
0.0711451
0.0706027
0.0700477
0.0694825
0.0689028
0.068302
0.0676808
0.0670425
0.0663881
0.0657154
0.065022
0.0643046
0.0635632
0.0628028
0.0620222
0.06122
0.060391
0.0595365
0.0586587
0.0577603
0.0793341
0.0792545
0.0791421
0.0789969
0.0788307
0.0786407
0.0784294
0.0782001
0.0779418
0.0776568
0.077347
0.0770111
0.0766454
0.0762625
0.0758636
0.0754405
0.0749923
0.0745264
0.0740471
0.0735493
0.07303
0.0724899
0.0719365
0.0713719
0.0707922
0.070191
0.0695689
0.0689282
0.0682701
0.0675929
0.0668943
0.066171
0.0654233
0.0646556
0.063867
0.0630562
0.0622182
0.0613545
0.0604676
0.0595608
0.081101
0.0810248
0.0809166
0.0807765
0.0806156
0.0804311
0.0802254
0.0800016
0.0797491
0.07947
0.0791661
0.078836
0.0784764
0.0780992
0.0777054
0.0772873
0.0768443
0.076383
0.0759075
0.0754132
0.0748971
0.0743599
0.0738086
0.0732454
0.0726664
0.0720658
0.0714446
0.0708013
0.07014
0.0694587
0.0687543
0.0680268
0.067274
0.0665004
0.0657046
0.0648865
0.0640407
0.063169
0.0622744
0.0613612
0.0828478
0.0827749
0.0826708
0.0825356
0.0823797
0.0822006
0.0820003
0.0817817
0.0815349
0.0812617
0.0809636
0.0806395
0.0802861
0.0799147
0.0795264
0.0791137
0.0786759
0.0782196
0.0777485
0.0772581
0.0767457
0.0762119
0.0756635
0.0751023
0.0745247
0.0739249
0.073304
0.0726598
0.0719966
0.0713124
0.0706041
0.0698718
0.0691153
0.0683368
0.0675349
0.0667103
0.0658576
0.0649791
0.0640783
0.0631606
0.0845738
0.084504
0.0844039
0.0842734
0.0841224
0.0839484
0.0837535
0.0835401
0.0832989
0.0830315
0.0827393
0.0824212
0.0820741
0.0817087
0.0813259
0.0809188
0.0804867
0.0800356
0.0795691
0.0790831
0.078575
0.0780452
0.0775004
0.0769423
0.0763665
0.0757679
0.0751477
0.0745034
0.0738392
0.0731532
0.0724425
0.0717071
0.0709472
0.0701642
0.0693571
0.0685266
0.0676681
0.0667839
0.0658783
0.0649583
0.0862781
0.0862114
0.0861152
0.0859892
0.085843
0.0856741
0.0854843
0.0852761
0.0850404
0.0847789
0.0844926
0.0841805
0.0838398
0.0834805
0.0831035
0.0827021
0.0822758
0.0818302
0.0813688
0.0808875
0.080384
0.0798588
0.0793183
0.0787652
0.078191
0.0775944
0.076975
0.0763311
0.0756667
0.07498
0.0742682
0.0735309
0.0727693
0.0719815
0.0711697
0.0703343
0.0694709
0.0685822
0.0676735
0.0667533
0.0879601
0.0878963
0.0878038
0.0876823
0.0875407
0.0873767
0.087192
0.0869889
0.0867588
0.0865031
0.0862227
0.0859167
0.0855824
0.0852293
0.0848582
0.0844628
0.0840425
0.0836027
0.0831466
0.0826705
0.082172
0.0816518
0.0811159
0.0805669
0.0799963
0.0794037
0.0787851
0.078142
0.0774781
0.0767918
0.0760808
0.0753414
0.0745776
0.0737868
0.0729714
0.0721321
0.0712648
0.0703729
0.0694625
0.0685446
0.0896188
0.0895579
0.0894689
0.0893518
0.0892147
0.0890556
0.0888759
0.0886779
0.0884533
0.0882034
0.087929
0.0876291
0.0873013
0.0869545
0.0865894
0.0862001
0.085786
0.0853522
0.0849019
0.0844312
0.0839383
0.0834235
0.0828927
0.0823479
0.081781
0.0811918
0.0805757
0.0799345
0.0792722
0.0785871
0.0778765
0.0771367
0.0763713
0.0755784
0.0747606
0.0739186
0.0730486
0.0721547
0.0712443
0.0703309
0.0912535
0.0911954
0.0911099
0.0909969
0.0908643
0.0907099
0.0905353
0.0903423
0.0901232
0.0898792
0.0896107
0.0893171
0.0889957
0.0886553
0.0882963
0.0879132
0.0875055
0.087078
0.0866336
0.0861689
0.085682
0.0851733
0.0846483
0.0841081
0.0835452
0.0829595
0.0823464
0.0817079
0.0810479
0.080366
0.0796555
0.0789162
0.0781495
0.077355
0.0765364
0.0756927
0.0748211
0.0739263
0.0730175
0.072111
0.0928636
0.092808
0.0927259
0.0926171
0.0924888
0.092339
0.0921693
0.0919813
0.0917678
0.0915297
0.0912673
0.0909798
0.090665
0.0903309
0.0899781
0.0896014
0.0892003
0.0887793
0.0883412
0.0878828
0.0874022
0.0869003
0.0863829
0.0858468
0.0852885
0.0847064
0.0840966
0.0834611
0.0828037
0.0821241
0.0814152
0.0806769
0.0799099
0.0791161
0.0782988
0.0774536
0.076581
0.0756865
0.0747807
0.0738835
0.0944483
0.0943952
0.0943164
0.0942115
0.0940874
0.0939423
0.0937774
0.0935944
0.0933864
0.0931543
0.0928981
0.0926168
0.0923084
0.0919806
0.0916341
0.0912639
0.0908695
0.0904553
0.0900238
0.089572
0.0890983
0.0886034
0.0880925
0.0875623
0.0870104
0.0864315
0.0858252
0.0851932
0.0845389
0.083862
0.0831553
0.0824188
0.0816529
0.0808602
0.0800437
0.0791988
0.0783266
0.0774337
0.0765326
0.0756469
0.0960069
0.0959563
0.0958806
0.0957795
0.0956595
0.0955189
0.0953588
0.0951807
0.0949783
0.0947524
0.0945027
0.0942274
0.0939252
0.0936037
0.0932635
0.0929
0.0925125
0.0921053
0.0916807
0.091236
0.0907697
0.0902823
0.0897779
0.0892535
0.0887071
0.0881329
0.087531
0.0869032
0.0862528
0.085579
0.0848751
0.0841411
0.0833773
0.0825862
0.0817711
0.0809273
0.0800567
0.0791666
0.0782716
0.0773997
0.0975389
0.0974906
0.0974179
0.0973206
0.0972046
0.0970683
0.0969129
0.0967397
0.0965428
0.0963231
0.0960812
0.0958107
0.0955145
0.0951994
0.0948657
0.0945089
0.0941286
0.0937286
0.0933113
0.092874
0.0924157
0.0919374
0.0914388
0.0909204
0.0903792
0.0898101
0.0892132
0.0885904
0.0879447
0.0872746
0.086574
0.0858429
0.0850819
0.0842932
0.0834801
0.0826384
0.0817703
0.0808841
0.0799965
0.0791404
0.0990436
0.0989976
0.0989279
0.0988341
0.0987221
0.09859
0.0984391
0.0982707
0.0980791
0.0978652
0.0976294
0.0973651
0.0970755
0.096767
0.0964399
0.0960902
0.0957172
0.0953247
0.0949148
0.0944854
0.0940355
0.0935649
0.0930735
0.0925629
0.0920264
0.0914623
0.090871
0.0902538
0.0896145
0.0889477
0.0882506
0.0875231
0.0867655
0.08598
0.0851698
0.084331
0.0834662
0.0825849
0.0817059
0.0808674
0.100521
0.100477
0.10041
0.10032
0.100211
0.100084
0.0999371
0.0997733
0.0995868
0.0993785
0.0991486
0.0988906
0.0986077
0.0983061
0.0979858
0.0976432
0.0972777
0.0968928
0.0964908
0.0960696
0.0956293
0.0951656
0.0946814
0.0941772
0.0936464
0.0930884
0.0925034
0.0918919
0.0912581
0.0905961
0.0899035
0.0891804
0.0884271
0.0876455
0.086839
0.086004
0.0851436
0.084268
0.0833987
0.0825793
0.10197
0.101928
0.101864
0.101777
0.101672
0.101548
0.101406
0.101247
0.101066
0.100863
0.100639
0.100387
0.100111
0.0998162
0.0995029
0.0991675
0.0988097
0.0984327
0.0980386
0.0976256
0.0971937
0.096738
0.0962626
0.0957637
0.0952388
0.0946873
0.0941103
0.0935042
0.0928757
0.092219
0.0915317
0.0908139
0.0900656
0.0892887
0.0884869
0.0876566
0.0868013
0.0859323
0.0850735
0.0842746
0.10339
0.10335
0.103289
0.103205
0.103104
0.102984
0.102846
0.102692
0.102515
0.102318
0.1021
0.101854
0.101585
0.101297
0.100991
0.100663
0.100313
0.0999437
0.0995579
0.0991536
0.0987296
0.0982819
0.0978136
0.0973211
0.0968025
0.0962576
0.0956878
0.0950887
0.0944664
0.0938157
0.0931344
0.0924225
0.0916802
0.090909
0.0901127
0.0892879
0.0884385
0.0875768
0.0867294
0.0859519
0.104782
0.104744
0.104685
0.104604
0.104507
0.104391
0.104257
0.104107
0.103935
0.103743
0.103531
0.103292
0.103029
0.102748
0.102449
0.102128
0.101786
0.101426
0.101048
0.100654
0.100237
0.0997979
0.0993353
0.0988489
0.0983369
0.0977989
0.0972363
0.0966458
0.0960296
0.0953853
0.0947107
0.0940056
0.09327
0.0925055
0.0917156
0.0908972
0.0900544
0.0892007
0.0883651
0.0876098
0.106144
0.106108
0.106051
0.105974
0.10588
0.105768
0.105638
0.105492
0.105325
0.105139
0.104932
0.1047
0.104444
0.10417
0.103878
0.103564
0.10323
0.102878
0.10251
0.102123
0.101714
0.101282
0.100826
0.100347
0.0998415
0.0993105
0.098755
0.0981723
0.0975637
0.0969269
0.0962599
0.0955624
0.0948341
0.0940779
0.0932953
0.0924838
0.0916482
0.090803
0.0899797
0.089247
0.107477
0.107443
0.107388
0.107314
0.107223
0.107115
0.106989
0.106847
0.106686
0.106504
0.106304
0.106078
0.105829
0.105561
0.105276
0.10497
0.104644
0.104301
0.103942
0.103562
0.103161
0.102735
0.102286
0.101814
0.101316
0.100792
0.100243
0.0996691
0.0990686
0.0984402
0.0977817
0.0970926
0.0963731
0.0956268
0.0948513
0.0940471
0.0932193
0.092383
0.0915722
0.0908623
0.10878
0.108748
0.108696
0.108624
0.108536
0.108431
0.10831
0.108172
0.108016
0.10784
0.107645
0.107426
0.107183
0.106922
0.106644
0.106346
0.106028
0.105694
0.105342
0.104968
0.104574
0.104156
0.103715
0.10325
0.10276
0.102245
0.101703
0.101137
0.100545
0.0999253
0.0992756
0.0985956
0.0978855
0.0971486
0.0963818
0.095586
0.0947667
0.0939399
0.0931419
0.0924547
0.110054
0.110023
0.109973
0.109904
0.10982
0.109718
0.109601
0.109467
0.109315
0.109145
0.108956
0.108745
0.108507
0.108253
0.107981
0.10769
0.107381
0.107055
0.106709
0.106342
0.105955
0.105545
0.105112
0.104656
0.104175
0.103668
0.103135
0.102576
0.101993
0.101383
0.100742
0.100072
0.0993713
0.0986442
0.0978868
0.0971002
0.0962901
0.0954731
0.094688
0.0940234
0.111298
0.111268
0.111221
0.111155
0.111073
0.110975
0.110861
0.110732
0.110584
0.110419
0.110235
0.110031
0.1098
0.109552
0.109287
0.109004
0.108703
0.108383
0.108044
0.107685
0.107304
0.106902
0.106478
0.106031
0.105559
0.105061
0.104537
0.103987
0.103412
0.102811
0.102181
0.10152
0.100831
0.100114
0.0993664
0.0985895
0.097789
0.0969822
0.0962099
0.0955674
0.112512
0.112484
0.112438
0.112375
0.112296
0.112202
0.112091
0.111966
0.111823
0.111662
0.111484
0.111285
0.111061
0.11082
0.110562
0.110286
0.109993
0.10968
0.109348
0.108996
0.108623
0.10823
0.107814
0.107376
0.106913
0.106425
0.10591
0.10537
0.104804
0.104212
0.103592
0.102942
0.102264
0.101558
0.100821
0.100054
0.0992631
0.0984667
0.0977071
0.097086
0.113697
0.11367
0.113626
0.113565
0.113489
0.113398
0.113291
0.11317
0.113031
0.112875
0.112703
0.11251
0.112292
0.112058
0.111806
0.111536
0.11125
0.110945
0.110621
0.110277
0.109912
0.109527
0.10912
0.108691
0.108237
0.107759
0.107254
0.106724
0.106168
0.105586
0.104976
0.104338
0.103673
0.102976
0.102249
0.101492
0.100712
0.0999262
0.0991791
0.0985787
0.114852
0.114826
0.114784
0.114726
0.114653
0.114564
0.114461
0.114343
0.114209
0.114058
0.113891
0.113704
0.113493
0.113265
0.11302
0.112757
0.112476
0.112179
0.111863
0.111527
0.11117
0.110793
0.110395
0.109975
0.109531
0.109063
0.108568
0.108049
0.107504
0.106932
0.106333
0.105706
0.105052
0.104367
0.103651
0.102905
0.102135
0.10136
0.100625
0.100045
0.115977
0.115953
0.115913
0.115856
0.115786
0.115701
0.115601
0.115487
0.115357
0.11521
0.115048
0.114867
0.114664
0.114442
0.114204
0.113947
0.113673
0.113383
0.113075
0.112747
0.112398
0.112028
0.11164
0.11123
0.110796
0.110337
0.109853
0.109344
0.10881
0.10825
0.107662
0.107046
0.106404
0.10573
0.105026
0.104291
0.103532
0.102768
0.102046
0.101484
0.117073
0.11705
0.117012
0.116958
0.11689
0.116807
0.116711
0.116601
0.116474
0.116333
0.116176
0.116001
0.115806
0.11559
0.115357
0.115107
0.11484
0.114557
0.114257
0.113936
0.113596
0.113235
0.112855
0.112454
0.11203
0.111582
0.111108
0.11061
0.110087
0.109538
0.108962
0.108359
0.107728
0.107066
0.106373
0.10565
0.104903
0.10415
0.103439
0.102895
0.11814
0.118118
0.118082
0.11803
0.117964
0.117885
0.117791
0.117685
0.117562
0.117425
0.117273
0.117104
0.116916
0.116706
0.11648
0.116237
0.115977
0.115701
0.115408
0.115096
0.114764
0.114411
0.114041
0.113649
0.113235
0.112797
0.112334
0.111847
0.111335
0.110797
0.110233
0.109644
0.109025
0.108374
0.107693
0.106982
0.106246
0.105505
0.104805
0.104279
0.119178
0.119158
0.119122
0.119072
0.11901
0.118933
0.118843
0.118739
0.118621
0.118488
0.118341
0.118178
0.117995
0.117793
0.117574
0.117337
0.117084
0.116814
0.11653
0.116226
0.115902
0.115559
0.115196
0.114814
0.11441
0.113982
0.11353
0.113054
0.112553
0.112027
0.111475
0.110898
0.110292
0.109654
0.108985
0.108286
0.107563
0.106832
0.106145
0.105634
0.120188
0.120168
0.120134
0.120087
0.120026
0.119952
0.119865
0.119765
0.119651
0.119522
0.11938
0.119222
0.119046
0.11885
0.118638
0.118408
0.118161
0.117899
0.117622
0.117326
0.117011
0.116676
0.116322
0.115949
0.115555
0.115138
0.114697
0.114232
0.113742
0.113228
0.112688
0.112124
0.11153
0.110905
0.110249
0.109563
0.108851
0.108133
0.107456
0.10696
0.121169
0.12115
0.121118
0.121072
0.121014
0.120943
0.120859
0.120762
0.120652
0.120527
0.120389
0.120236
0.120067
0.11988
0.119673
0.11945
0.11921
0.118955
0.118685
0.118397
0.118091
0.117765
0.11742
0.117056
0.116671
0.116264
0.115834
0.11538
0.114902
0.1144
0.113872
0.11332
0.112739
0.112127
0.111484
0.110811
0.110112
0.109405
0.10874
0.108257
0.122123
0.122105
0.122074
0.12203
0.121974
0.121905
0.121824
0.121731
0.121624
0.121504
0.121371
0.121223
0.121059
0.120878
0.120678
0.120462
0.12023
0.119982
0.119718
0.11944
0.119142
0.118825
0.118489
0.118134
0.117758
0.117362
0.116942
0.1165
0.116033
0.115543
0.115028
0.114489
0.11392
0.113321
0.112691
0.112031
0.111345
0.11065
0.109995
0.109525
0.123049
0.123032
0.123002
0.12296
0.122906
0.12284
0.122762
0.122672
0.122569
0.122452
0.122323
0.12218
0.122022
0.121848
0.121655
0.121446
0.121221
0.12098
0.120725
0.120453
0.120164
0.119856
0.119529
0.119183
0.118818
0.118431
0.118022
0.11759
0.117136
0.116658
0.116157
0.11563
0.115073
0.114487
0.11387
0.113223
0.11255
0.111866
0.111222
0.110763
0.123948
0.123932
0.123903
0.123863
0.123811
0.123748
0.123672
0.123585
0.123486
0.123373
0.123249
0.12311
0.122958
0.12279
0.122605
0.122403
0.122185
0.121951
0.121703
0.121439
0.121158
0.120859
0.120541
0.120205
0.119849
0.119472
0.119073
0.118653
0.11821
0.117744
0.117256
0.116741
0.116198
0.115624
0.11502
0.114386
0.113726
0.113054
0.112419
0.111971
0.12482
0.124805
0.124778
0.124739
0.124689
0.124628
0.124556
0.124472
0.124375
0.124267
0.124147
0.124013
0.123866
0.123704
0.123528
0.123332
0.123121
0.122894
0.122653
0.122396
0.122124
0.121834
0.121525
0.121199
0.120852
0.120486
0.120098
0.119688
0.119256
0.118803
0.118327
0.117824
0.117293
0.116732
0.116141
0.11552
0.114872
0.114211
0.113586
0.113147
0.125666
0.125652
0.125626
0.125589
0.125541
0.125482
0.125412
0.125332
0.125239
0.125134
0.125018
0.124889
0.124747
0.124591
0.124421
0.124233
0.124029
0.12381
0.123576
0.123327
0.123063
0.122781
0.122482
0.122165
0.121828
0.121472