/*--------------------------------*- C++ -*----------------------------------*\
| =========                 |                                                 |
| \\      /  F ield         | OpenFOAM: The Open Source CFD Toolbox           |
|  \\    /   O peration     | Version:  3.0.1                                 |
|   \\  /    A nd           | Web:      www.OpenFOAM.org                      |
|    \\/     M anipulation  |                                                 |
\*---------------------------------------------------------------------------*/
FoamFile
{
    version     2.0;
    format      ascii;
    class       volScalarField;
    location    "500";
    object      p;
}
// * * * * * * * * * * * * * * * * * * * * * * * * * * * * * * * * * * * * * //

dimensions      [0 2 -2 0 0 0 0];

internalField   nonuniform List<scalar> 
58000
(
0.31584
0.0939134
-0.0944732
-0.230999
-0.320939
-0.380135
-0.42357
-0.452297
-0.473101
-0.487256
-0.493733
-0.495317
-0.494185
-0.490556
-0.485193
-0.479464
-0.473764
-0.46788
-0.461577
-0.455356
-0.449402
-0.443597
-0.437741
-0.431729
-0.425889
-0.420264
-0.414677
-0.409084
-0.403401
-0.397712
-0.392145
-0.386522
-0.380628
-0.374544
-0.368795
-0.361963
-0.354659
-0.348111
-0.343489
-0.339991
0.40102
0.32302
0.241067
0.146087
0.0512996
-0.0392019
-0.115158
-0.179291
-0.236042
-0.281743
-0.31802
-0.347989
-0.371702
-0.387645
-0.398668
-0.406012
-0.41024
-0.411799
-0.41172
-0.410612
-0.408546
-0.405738
-0.402334
-0.398761
-0.39497
-0.390899
-0.386595
-0.382128
-0.377647
-0.373284
-0.368883
-0.364487
-0.360248
-0.356125
-0.351708
-0.346432
-0.340593
-0.335086
-0.330685
-0.327876
0.297333
0.241728
0.184834
0.123103
0.0572863
-0.00614794
-0.068777
-0.123825
-0.174163
-0.219392
-0.256271
-0.286828
-0.313118
-0.333737
-0.348533
-0.359871
-0.368502
-0.374408
-0.377835
-0.379568
-0.380155
-0.379806
-0.378645
-0.37679
-0.37442
-0.371677
-0.368627
-0.365338
-0.361892
-0.358272
-0.354476
-0.350549
-0.346498
-0.342341
-0.338079
-0.333612
-0.328981
-0.32445
-0.320266
-0.316453
0.2703
0.238496
0.203914
0.163103
0.116791
0.0680498
0.0171647
-0.0314809
-0.0790324
-0.123816
-0.16309
-0.198169
-0.229937
-0.256329
-0.27729
-0.294882
-0.309451
-0.320658
-0.328761
-0.334728
-0.339111
-0.342071
-0.343671
-0.344192
-0.34396
-0.343119
-0.341731
-0.339864
-0.337639
-0.335159
-0.332431
-0.329487
-0.326345
-0.323055
-0.319684
-0.316207
-0.312565
-0.308849
-0.305186
-0.301644
0.226212
0.203142
0.179419
0.152121
0.119858
0.0852243
0.0464544
0.0076665
-0.0317592
-0.0711208
-0.10724
-0.140648
-0.172202
-0.200027
-0.223014
-0.243189
-0.260796
-0.275307
-0.286567
-0.295491
-0.30272
-0.308373
-0.312444
-0.315085
-0.316743
-0.317636
-0.317832
-0.317404
-0.316445
-0.315044
-0.313296
-0.311241
-0.308901
-0.30633
-0.303594
-0.300713
-0.297668
-0.294497
-0.291251
-0.28795
0.197937
0.180658
0.163236
0.143425
0.119825
0.094331
0.0648578
0.0343164
0.00231493
-0.0309357
-0.0627262
-0.0932024
-0.122932
-0.150285
-0.173792
-0.195196
-0.214548
-0.231191
-0.24475
-0.256032
-0.26564
-0.273611
-0.279853
-0.284462
-0.287946
-0.29054
-0.292303
-0.293293
-0.293587
-0.293314
-0.292612
-0.291522
-0.290071
-0.28831
-0.286312
-0.28413
-0.281753
-0.279194
-0.276477
-0.27363
0.172824
0.159037
0.145501
0.130441
0.112474
0.0932067
0.070465
0.0464581
0.0208705
-0.00656752
-0.0336216
-0.0602332
-0.0868778
-0.112351
-0.134907
-0.156038
-0.175692
-0.193201
-0.207986
-0.220696
-0.231888
-0.241525
-0.249454
-0.255659
-0.260669
-0.264727
-0.267876
-0.270159
-0.271627
-0.272412
-0.272695
-0.272521
-0.271917
-0.270933
-0.269636
-0.268093
-0.266313
-0.264301
-0.262074
-0.259654
0.152608
0.141208
0.130203
0.118182
0.103929
0.0888139
0.0708259
0.0516551
0.0310453
0.00847951
-0.0142849
-0.0371176
-0.0604194
-0.0833915
-0.104247
-0.124248
-0.143278
-0.160718
-0.175885
-0.18927
-0.201359
-0.21205
-0.22115
-0.228547
-0.234754
-0.240001
-0.244309
-0.247701
-0.250202
-0.251944
-0.253133
-0.25381
-0.254004
-0.25376
-0.253136
-0.252215
-0.251017
-0.249545
-0.247814
-0.245847
0.135549
0.125859
0.116619
0.10668
0.0949867
0.0827357
0.0681311
0.0525206
0.035694
0.0170261
-0.00210809
-0.0215665
-0.0417016
-0.0620445
-0.0808836
-0.0992939
-0.117136
-0.133881
-0.148803
-0.162254
-0.174653
-0.185852
-0.195643
-0.20383
-0.210884
-0.217016
-0.222222
-0.226508
-0.229872
-0.232431
-0.234408
-0.235837
-0.236744
-0.237171
-0.237165
-0.236815
-0.236155
-0.235185
-0.233921
-0.232385
0.12112
0.112717
0.104765
0.0963152
0.0864567
0.0762423
0.0640934
0.0511158
0.0371396
0.0215214
0.00534388
-0.0112611
-0.0286059
-0.0464628
-0.0632666
-0.0799348
-0.0963277
-0.112015
-0.126283
-0.139374
-0.151647
-0.162926
-0.173006
-0.181626
-0.189207
-0.195935
-0.201785
-0.206743
-0.210785
-0.214008
-0.216639
-0.218706
-0.22023
-0.221245
-0.221789
-0.221956
-0.221786
-0.221278
-0.220448
-0.219318
0.10876
0.10136
0.0943883
0.0870498
0.0785571
0.0698415
0.059521
0.048524
0.0367136
0.0234746
0.00967287
-0.00457814
-0.0195539
-0.0351895
-0.0500902
-0.0650442
-0.079922
-0.0943868
-0.107769
-0.120234
-0.132086
-0.143135
-0.153193
-0.161956
-0.169794
-0.176862
-0.183122
-0.188544
-0.193085
-0.196818
-0.199967
-0.202552
-0.204587
-0.206101
-0.207121
-0.207738
-0.208
-0.207905
-0.207468
-0.206708
0.098085
0.0914891
0.0852885
0.0788091
0.0713672
0.0637893
0.0548661
0.0453904
0.0352508
0.0238798
0.0119822
-0.000345655
-0.0133442
-0.0270537
-0.0402501
-0.0536134
-0.067028
-0.0802375
-0.0926331
-0.104325
-0.115572
-0.126187
-0.135999
-0.144685
-0.152563
-0.159764
-0.166237
-0.171939
-0.176816
-0.180915
-0.184451
-0.187437
-0.18988
-0.191801
-0.193217
-0.194217
-0.194852
-0.195117
-0.195028
-0.194599
0.0887921
0.082857
0.07728
0.0714849
0.064875
0.058186
0.0503575
0.042075
0.0332472
0.0233607
0.0129976
0.00223974
-0.00912139
-0.0211875
-0.0328916
-0.0448236
-0.0568842
-0.0688824
-0.0802748
-0.0911324
-0.10168
-0.111736
-0.121154
-0.129604
-0.137361
-0.144534
-0.15106
-0.156892
-0.161964
-0.166303
-0.170109
-0.173386
-0.176138
-0.178378
-0.180114
-0.18143
-0.182376
-0.182948
-0.183159
-0.183018
0.0806486
0.0752669
0.070206
0.0649695
0.0590348
0.0530581
0.046107
0.0387796
0.031
0.0223091
0.0131951
0.00372719
-0.00627601
-0.0169487
-0.0273621
-0.0380306
-0.0488703
-0.0597415
-0.0701651
-0.0801858
-0.0899973
-0.0994316
-0.108366
-0.116477
-0.123998
-0.131022
-0.137482
-0.143323
-0.148473
-0.152942
-0.156915
-0.160388
-0.163359
-0.165837
-0.167822
-0.169389
-0.170589
-0.171416
-0.17188
-0.171985
0.0734707
0.0685598
0.0639342
0.0591636
0.0537885
0.0483953
0.0421617
0.0356135
0.0286866
0.0209725
0.0128859
0.00448589
-0.00438523
-0.0138764
-0.0231796
-0.0327447
-0.0424995
-0.0523434
-0.0618575
-0.0710707
-0.0801514
-0.0889443
-0.0973494
-0.105059
-0.112272
-0.119063
-0.125365
-0.131121
-0.136256
-0.140767
-0.14482
-0.148407
-0.151521
-0.154165
-0.156333
-0.158092
-0.159491
-0.160523
-0.161194
-0.161506
0.0671116
0.0626067
0.0583539
0.0539788
0.0490757
0.0441699
0.0385338
0.0326322
0.0264102
0.0195056
0.0122742
0.00476651
-0.00315434
-0.0116409
-0.0199895
-0.0285941
-0.0373922
-0.0463123
-0.0549898
-0.0634434
-0.0718214
-0.0799826
-0.0878447
-0.0951203
-0.101978
-0.108481
-0.114562
-0.120165
-0.125215
-0.129695
-0.133759
-0.137392
-0.140583
-0.14333
-0.145624
-0.147522
-0.149071
-0.150262
-0.1511
-0.151579
0.0614515
0.0573007
0.053372
0.0493378
0.0448392
0.040347
0.0352164
0.0298597
0.0242295
0.0180046
0.0114932
0.00473861
-0.00237817
-0.0100064
-0.0175315
-0.0252998
-0.033257
-0.0413531
-0.0492707
-0.057022
-0.0647381
-0.0722922
-0.0796173
-0.0864472
-0.092927
-0.0991088
-0.104927
-0.11033
-0.115242
-0.119638
-0.123657
-0.12728
-0.130493
-0.133293
-0.135662
-0.137653
-0.139308
-0.140617
-0.141584
-0.142195
0.0563927
0.0525541
0.0489101
0.0451737
0.0410262
0.0368905
0.0321934
0.0273023
0.0221755
0.0165286
0.0106301
0.00451738
-0.00191309
-0.0088034
-0.0156155
-0.0226543
-0.0298725
-0.0372357
-0.0444678
-0.0515765
-0.0586779
-0.0656587
-0.072465
-0.0788527
-0.0849473
-0.0907918
-0.0963243
-0.101495
-0.106231
-0.110503
-0.114435
-0.118005
-0.121198
-0.124006
-0.126409
-0.128453
-0.130176
-0.131568
-0.132628
-0.133341
0.0518551
0.0482937
0.0449023
0.0414288
0.0375898
0.0337651
0.0294445
0.0249559
0.0202626
0.0151125
0.00974119
0.00418084
-0.00165883
-0.00791064
-0.0141021
-0.0205025
-0.0270702
-0.0337824
-0.0403979
-0.046922
-0.0534575
-0.0599037
-0.0662173
-0.0721763
-0.077889
-0.0833921
-0.088627
-0.0935463
-0.0980835
-0.102203
-0.106015
-0.1095
-0.112637
-0.115419
-0.117822
-0.119886
-0.121645
-0.123088
-0.124213
-0.125
0.0477718
0.0444585
0.0412933
0.038054
0.0344883
0.0309381
0.0269477
0.0228108
0.0184948
0.0137762
0.00886263
0.00378183
-0.00154506
-0.00724074
-0.0128891
-0.0187285
-0.0247222
-0.0308554
-0.0369172
-0.0429112
-0.0489287
-0.0548801
-0.0607312
-0.0662808
-0.0716229
-0.0767884
-0.0817229
-0.0863823
-0.0907047
-0.0946526
-0.098324
-0.101697
-0.104753
-0.107481
-0.109856
-0.111913
-0.113681
-0.115149
-0.116314
-0.11715
0.0440867
0.0409968
0.0380356
0.0350067
0.0316852
0.028379
0.024681
0.0208544
0.0168702
0.0125298
0.008017
0.00335591
-0.00152249
-0.0067306
-0.011901
-0.0172453
-0.0227306
-0.0283479
-0.0339125
-0.0394266
-0.0449714
-0.0504672
-0.0558873
-0.0610499
-0.0660368
-0.0708744
-0.0755122
-0.0799096
-0.0840099
-0.0877742
-0.0912897
-0.0945347
-0.0974896
-0.100142
-0.102468
-0.104495
-0.10625
-0.107722
-0.108905
-0.10977
0.0407522
0.0378645
0.0350883
0.0322498
0.0291483
0.0260609
0.0226238
0.0190732
0.0153831
0.0113768
0.00721771
0.00292673
-0.00155662
-0.0063346
-0.0110821
-0.0159872
-0.0210206
-0.0261771
-0.0312945
-0.0363741
-0.0414882
-0.0465659
-0.0515864
-0.0563857
-0.0610354
-0.0655582
-0.0699077
-0.0740465
-0.0779226
-0.0814973
-0.084848
-0.0879531
-0.0907929
-0.0933544
-0.0956139
-0.0975944
-0.0993194
-0.100776
-0.10196
-0.102838
0.0377279
0.0350242
0.0324167
0.0297515
0.0268492
0.0239597
0.020757
0.0174534
0.0140258
0.0103169
0.00647213
0.00250983
-0.0016232
-0.00601947
-0.0103907
-0.0149044
-0.0195344
-0.0242781
-0.0289926
-0.0336786
-0.0384003
-0.043095
-0.0477461
-0.0522063
-0.0565382
-0.0607615
-0.0648338
-0.0687209
-0.072375
-0.0757585
-0.0789399
-0.081898
-0.0846135
-0.0870731
-0.0892537
-0.0911741
-0.0928547
-0.0942827
-0.0954525
-0.0963283
0.0349789
0.0324435
0.0299906
0.0274839
0.024763
0.0220534
0.0190625
0.0159818
0.01279
0.00934743
0.00578395
0.00211537
-0.00170507
-0.00576089
-0.00979583
-0.0139591
-0.0182273
-0.0225999
-0.0269507
-0.0312798
-0.0356442
-0.0399881
-0.0442987
-0.0484434
-0.0524773
-0.0564176
-0.0602256
-0.0638699
-0.067307
-0.0705008
-0.0735117
-0.0763195
-0.0789052
-0.0812558
-0.0833485
-0.0851989
-0.0868244
-0.0882125
-0.0893566
-0.0902193
0.0324753
0.0300941
0.0277836
0.0254226
0.0228678
0.0203224
0.0175242
0.0146455
0.0116671
0.00846453
0.00515403
0.00174936
-0.00179061
-0.00554118
-0.00927417
-0.0131226
-0.0170653
-0.0211031
-0.0251243
-0.029129
-0.0331678
-0.0371906
-0.0411875
-0.0450396
-0.0487952
-0.0524692
-0.0560265
-0.0594387
-0.0626659
-0.0656737
-0.0685158
-0.0711726
-0.0736261
-0.0758634
-0.0778623
-0.0796356
-0.0811982
-0.0825377
-0.0836473
-0.0844877
0.0301911
0.0279519
0.0257728
0.0235464
0.0211443
0.0187497
0.0161274
0.0134327
0.0106482
0.00766295
0.00458119
0.0014149
-0.00187212
-0.00534756
-0.00880803
-0.0123724
-0.0160213
-0.0197564
-0.0234783
-0.0271874
-0.0309288
-0.0346575
-0.0383657
-0.0419468
-0.0454431
-0.0488675
-0.0521883
-0.0553796
-0.0584054
-0.0612329
-0.0639097
-0.066417
-0.068738
-0.0708599
-0.0727616
-0.0744531
-0.0759472
-0.077232
-0.0783001
-0.0791114
0.0281036
0.0259957
0.0239384
0.0218366
0.0195752
0.0173197
0.0148588
0.0123324
0.00972496
0.00693742
0.00406343
0.00111346
-0.00194445
-0.00517098
-0.00838448
-0.0116914
-0.0150741
-0.0185345
-0.0219844
-0.0254239
-0.0288932
-0.0323522
-0.0357946
-0.0391246
-0.0423797
-0.0455708
-0.0486692
-0.0516516
-0.0544851
-0.057139
-0.0596553
-0.0620164
-0.0642063
-0.0662127
-0.0680154
-0.0696224
-0.0710445
-0.0722702
-0.0732919
-0.0740689
0.0261931
0.0242066
0.0222627
0.0202766
0.0181455
0.0160187
0.0137062
0.0113346
0.00888938
0.00628251
0.00359804
0.000845207
-0.0020043
-0.00500477
-0.00799383
-0.0110666
-0.0142072
-0.0174176
-0.0206194
-0.0238125
-0.0270328
-0.0302441
-0.0334416
-0.0365392
-0.0395701
-0.0425436
-0.0454335
-0.0482187
-0.0508695
-0.0533573
-0.0557191
-0.0579383
-0.0599999
-0.0618921
-0.0635957
-0.065117
-0.0664651
-0.067629
-0.0686009
-0.0693398
0.0244421
0.0225683
0.0207299
0.0188517
0.0168416
0.0148342
0.0126589
0.0104298
0.00813399
0.00569278
0.00318186
0.000609306
-0.00204991
-0.00484423
-0.00762841
-0.0104877
-0.0134076
-0.0163899
-0.0193649
-0.0223324
-0.0253243
-0.028308
-0.0312798
-0.0341623
-0.0369848
-0.0397554
-0.0424501
-0.0450499
-0.0475278
-0.0498573
-0.0520711
-0.0541537
-0.0560906
-0.0578709
-0.0594766
-0.0609123
-0.0621857
-0.0632863
-0.0642062
-0.0649046
0.0228351
0.0210662
0.0193264
0.017549
0.0156514
0.0137552
0.011707
0.00960971
0.00745183
0.00516305
0.0028116
0.000404493
-0.00208041
-0.00468628
-0.00728293
-0.00994686
-0.0126647
-0.0154384
-0.0182056
-0.0209661
-0.0237482
-0.0265226
-0.0292862
-0.0319695
-0.0345985
-0.0371801
-0.0396924
-0.0421181
-0.0444329
-0.0466121
-0.0486848
-0.0506363
-0.0524531
-0.0541247
-0.0556344
-0.0569857
-0.0581847
-0.0592216
-0.0600885
-0.0607449
0.0213586
0.0196874
0.0180399
0.0163569
0.0145643
0.0127718
0.0108416
0.00886667
0.00683648
0.00468834
0.0024838
0.000228998
-0.00209563
-0.00452857
-0.00695314
-0.00943783
-0.0119704
-0.0145528
-0.0171294
-0.0196995
-0.0222886
-0.0248702
-0.0274415
-0.0299404
-0.0323897
-0.0347952
-0.0371371
-0.0393998
-0.0415609
-0.043598
-0.0455365
-0.0473629
-0.0490644
-0.0506313
-0.0520477
-0.0533163
-0.054442
-0.0554156
-0.0562294
-0.0568432
0.0200005
0.0184206
0.0168597
0.0152652
0.0135707
0.0118751
0.0100548
0.00819365
0.00628199
0.00426397
0.00219514
8.09491e-05
-0.00209591
-0.00436968
-0.0066358
-0.00895564
-0.0113181
-0.0137248
-0.0161259
-0.0185208
-0.020932
-0.0233357
-0.0257295
-0.0280574
-0.0303397
-0.0325813
-0.0347643
-0.0368742
-0.0388911
-0.0407939
-0.0426054
-0.0443128
-0.0459042
-0.0473704
-0.0486968
-0.0498851
-0.0509393
-0.0518506
-0.0526117
-0.053183
0.01875
0.0172556
0.0157759
0.0142645
0.0126618
0.0110572
0.00933938
0.00758422
0.0057829
0.0038856
0.0019425
-4.15308e-05
-0.00208179
-0.00420878
-0.00632871
-0.00849667
-0.0107025
-0.0129475
-0.0151869
-0.0174201
-0.0196672
-0.0219065
-0.0241361
-0.0263054
-0.0284326
-0.0305217
-0.0325564
-0.0345235
-0.0364049
-0.0381813
-0.0398727
-0.0414673
-0.0429539
-0.0443239
-0.0455638
-0.0466746
-0.0476594
-0.0485102
-0.0492195
-0.0497488
0.0175976
0.0161831
0.0147799
0.0133467
0.0118302
0.0103108
0.00868881
0.00703264
0.00533426
0.00354922
0.00172286
-0.000140442
-0.00205421
-0.00404555
-0.00603036
-0.00805808
-0.0101193
-0.0122151
-0.0143052
-0.0163891
-0.0184845
-0.0205719
-0.0226494
-0.0246716
-0.0266546
-0.0286018
-0.0304981
-0.0323318
-0.0340862
-0.0357436
-0.0373217
-0.0388096
-0.0401968
-0.0414752
-0.0426323
-0.0436687
-0.0445868
-0.0453788
-0.0460378
-0.046526
0.0165345
0.0151951
0.0138638
0.0125043
0.0110687
0.00962953
0.00809727
0.00653368
0.00493145
0.00325102
0.00153333
-0.000217744
-0.00201415
-0.00387992
-0.00573963
-0.0076376
-0.00956516
-0.0115231
-0.0134752
-0.0154209
-0.0173759
-0.0193226
-0.0212592
-0.0231448
-0.0249937
-0.0268087
-0.0285761
-0.030285
-0.0319204
-0.0334661
-0.0349376
-0.0363247
-0.0376178
-0.0388093
-0.0398877
-0.0408529
-0.0417068
-0.0424423
-0.0430526
-0.043501
0.015553
0.0142842
0.0130207
0.0117306
0.0103712
0.00900759
0.00755947
0.0060826
0.00457038
0.00298758
0.00137119
-0.000275368
-0.00196272
-0.00371209
-0.00545577
-0.00723348
-0.00903721
-0.0108675
-0.0126918
-0.0145094
-0.0163344
-0.0181507
-0.0199565
-0.0217153
-0.0234394
-0.0251314
-0.0267785
-0.0283709
-0.0298949
-0.0313357
-0.032707
-0.0339992
-0.0352034
-0.0363127
-0.0373161
-0.0382135
-0.0390062
-0.0396875
-0.040251
-0.0406609
0.0146462
0.0134437
0.0122443
0.0110199
0.00973206
0.00843967
0.00707055
0.00567507
0.00424726
0.00275571
0.00123385
-0.000315312
-0.00190116
-0.00354243
-0.00517829
-0.00684433
-0.00853318
-0.0102451
-0.0119508
-0.0136497
-0.015354
-0.0170492
-0.0187338
-0.0203746
-0.0219826
-0.0235599
-0.0250948
-0.0265784
-0.0279983
-0.0293407
-0.0306178
-0.0318207
-0.0329412
-0.0339727
-0.0349052
-0.0357381
-0.0364725
-0.0371021
-0.0376208
-0.0379939
0.0138076
0.0126677
0.0115289
0.0103665
0.00914618
0.00792097
0.00662613
0.00530711
0.00395852
0.00255235
0.0011188
-0.000339456
-0.00183068
-0.00337136
-0.00490687
-0.00646905
-0.00805115
-0.0096532
-0.0112488
-0.0128372
-0.0144295
-0.0160124
-0.0175842
-0.0191152
-0.0206151
-0.0220855
-0.0235159
-0.0248979
-0.0262203
-0.0274706
-0.0286593
-0.0297783
-0.03082
-0.031778
-0.0326435
-0.0334154
-0.0340944
-0.0346749
-0.0351509
-0.0354888
0.0130316
0.0119507
0.0108692
0.00976549
0.00860893
0.00744716
0.0062222
0.00497506
0.00370084
0.00237465
0.00102373
-0.000349537
-0.00175241
-0.00319936
-0.00464131
-0.00610679
-0.00758954
-0.00908941
-0.0105826
-0.0120684
-0.0135565
-0.0150348
-0.0165018
-0.0179306
-0.0193298
-0.0207006
-0.0220334
-0.0233207
-0.024552
-0.0257159
-0.0268217
-0.027862
-0.0288294
-0.0297184
-0.0305206
-0.0312348
-0.0318615
-0.0323954
-0.0328308
-0.0331352
0.0123129
0.0112877
0.0102606
0.00921244
0.00811606
0.00701425
0.00585511
0.00467558
0.00347127
0.00222006
0.000946531
-0.000347168
-0.00166741
-0.00302689
-0.00438152
-0.0057568
-0.007147
-0.00855174
-0.00994958
-0.0113398
-0.0127309
-0.014112
-0.0154814
-0.016815
-0.0181203
-0.0193982
-0.0206401
-0.0218389
-0.022985
-0.0240682
-0.0250963
-0.0260626
-0.0269604
-0.0277845
-0.028527
-0.0291869
-0.0297641
-0.0302538
-0.0306508
-0.0309233
0.0116468
0.0106743
0.00969861
0.00870321
0.0076637
0.00661861
0.00552149
0.00440565
0.00326711
0.00208627
0.000885327
-0.000333787
-0.00157667
-0.00285442
-0.00412743
-0.00541851
-0.00672236
-0.00803846
-0.00934744
-0.0106486
-0.0119494
-0.0132398
-0.0145184
-0.0157633
-0.0169811
-0.0181725
-0.0193294
-0.0204455
-0.0215121
-0.0225195
-0.023475
-0.024372
-0.0252045
-0.0259675
-0.026654
-0.0272626
-0.0277933
-0.0282413
-0.0286019
-0.0288443
0.0110291
0.0101063
0.00917949
0.00823408
0.00724836
0.00625697
0.00521835
0.00416253
0.00308596
0.00197123
0.000838436
-0.000310698
-0.00148108
-0.00268239
-0.00387904
-0.00509143
-0.00631465
-0.00754805
-0.00877414
-0.00999218
-0.0112088
-0.0124148
-0.0136087
-0.0147709
-0.0159071
-0.0170176
-0.0180954
-0.0191342
-0.0201264
-0.0210631
-0.0219505
-0.0227827
-0.0235539
-0.0242598
-0.0248936
-0.025454
-0.0259407
-0.0263496
-0.0266758
-0.0268897
0.0104558
0.00958015
0.00869964
0.00780167
0.00686686
0.00592634
0.00494295
0.00394378
0.00292562
0.00187308
0.000804316
-0.0002791
-0.00138147
-0.00251121
-0.00363636
-0.00477513
-0.005923
-0.00707918
-0.00822789
-0.00936836
-0.0105064
-0.0116337
-0.0127487
-0.0138336
-0.0148936
-0.0159288
-0.0169326
-0.0178994
-0.018822
-0.0196926
-0.0205163
-0.0212878
-0.0220017
-0.0226539
-0.0232383
-0.0237534
-0.0241989
-0.0245708
-0.0248647
-0.0250518
0.00992338
0.00909238
0.00825585
0.00740292
0.00651633
0.00562401
0.00469282
0.00374713
0.00278409
0.00179009
0.000781553
-0.000240096
-0.00127861
-0.00234129
-0.00339944
-0.00446928
-0.00554666
-0.00663069
-0.00770708
-0.0087751
-0.00983977
-0.0108936
-0.0119349
-0.0129478
-0.0139367
-0.0149016
-0.0158363
-0.0167358
-0.0175935
-0.0184022
-0.0191664
-0.0198811
-0.0205414
-0.0211433
-0.0216813
-0.022154
-0.0225608
-0.0228981
-0.0231615
-0.0233234
0.00942867
0.00863994
0.00784519
0.00703503
0.00619412
0.00534754
0.00446569
0.00357053
0.00265954
0.0017207
0.000768848
-0.000194702
-0.00117322
-0.00217302
-0.00316831
-0.00417358
-0.00518497
-0.00620151
-0.00721031
-0.00821058
-0.00920676
-0.0101919
-0.0111646
-0.0121102
-0.0130326
-0.0139319
-0.0148021
-0.0156388
-0.0164359
-0.0171867
-0.0178953
-0.0185569
-0.019167
-0.0197219
-0.0202165
-0.0206494
-0.0210199
-0.0213247
-0.0215596
-0.0216978
0.0089687
0.00822003
0.00746498
0.00669547
0.00589787
0.00509467
0.0042595
0.00341213
0.00255032
0.00166347
0.000765011
-0.000143853
-0.00106596
-0.00200674
-0.00294305
-0.00388777
-0.00483734
-0.00579073
-0.00673627
-0.00767319
-0.00860533
-0.0095264
-0.0104349
-0.0113176
-0.0121781
-0.0130159
-0.0138261
-0.0146041
-0.0153445
-0.0160413
-0.0166979
-0.0173099
-0.017873
-0.0183839
-0.0188379
-0.0192336
-0.0195702
-0.0198446
-0.0200528
-0.0201688
0.00854076
0.00783009
0.00711278
0.0063819
0.00562537
0.00486336
0.00407237
0.0032702
0.00245488
0.00161709
0.000768953
-8.84048e-05
-0.000957437
-0.0018428
-0.00272371
-0.00361161
-0.00450325
-0.0053975
-0.00628383
-0.00716146
-0.00803371
-0.00889485
-0.00974335
-0.0105674
-0.0113699
-0.0121505
-0.0129044
-0.0136277
-0.0143153
-0.0149616
-0.0155695
-0.0161351
-0.0166545
-0.0171243
-0.0175404
-0.0179013
-0.0182062
-0.0184522
-0.0186354
-0.0187308
0.00814241
0.00746778
0.00678634
0.0060922
0.00537464
0.00465173
0.00390258
0.0031432
0.00237186
0.00158035
0.000779678
-2.91421e-05
-0.000848211
-0.0016815
-0.00251034
-0.00334492
-0.00418221
-0.00502106
-0.00585192
-0.00667403
-0.00749027
-0.00829537
-0.00908783
-0.009857
-0.0106053
-0.0113324
-0.0120339
-0.012706
-0.0133443
-0.0139434
-0.014506
-0.0150283
-0.0155067
-0.0159382
-0.0163189
-0.0166474
-0.0169228
-0.0171422
-0.0173022
-0.0173785
0.00777136
0.00713095
0.00648363
0.00582443
0.00514384
0.00445808
0.00374856
0.00302969
0.00229996
0.00155218
0.000796279
3.32205e-05
-0.000738788
-0.00152311
-0.002303
-0.0030875
-0.00387378
-0.00466069
-0.00543959
-0.0062097
-0.00697349
-0.00772618
-0.00846625
-0.0091841
-0.0098818
-0.0105589
-0.0112114
-0.0118358
-0.0124279
-0.012983
-0.0135033
-0.0139852
-0.0144255
-0.0148213
-0.015169
-0.0154672
-0.0157151
-0.0159099
-0.0160483
-0.0161069
0.00742555
0.00681763
0.00620277
0.0055768
0.00493132
0.00428084
0.00360887
0.00292838
0.00223804
0.00153156
0.000817924
9.80342e-05
-0.000629626
-0.0013679
-0.00210174
-0.00283916
-0.00357757
-0.00431577
-0.00504594
-0.00576731
-0.00648201
-0.00718565
-0.00787673
-0.00854658
-0.00919696
-0.00982738
-0.0104341
-0.0110139
-0.011563
-0.012077
-0.0125578
-0.0130021
-0.0134068
-0.0137693
-0.0140863
-0.0143564
-0.0145787
-0.0147507
-0.0148691
-0.0149115
0.00710306
0.006526
0.00594202
0.00534768
0.00473553
0.00411859
0.00348221
0.00283807
0.00218503
0.00151758
0.000843863
0.000164719
-0.000521133
-0.00121606
-0.00190657
-0.00259975
-0.00329319
-0.00398569
-0.00467016
-0.00534585
-0.00601456
-0.00667227
-0.00731752
-0.00794247
-0.00854861
-0.00913538
-0.00969934
-0.0102376
-0.0107465
-0.0112222
-0.0116661
-0.0120753
-0.0124469
-0.0127785
-0.0130669
-0.013311
-0.0135096
-0.0136605
-0.0137605
-0.013788
0.00680216
0.0062544
0.00569982
0.00513556
0.00455508
0.00397
0.00336738
0.00275769
0.00213997
0.00150942
0.000873415
0.000232741
-0.000413685
-0.00106781
-0.00171753
-0.0023691
-0.00302028
-0.00366989
-0.00431148
-0.00494433
-0.00556995
-0.00618466
-0.00678702
-0.00736996
-0.00793472
-0.0084807
-0.00900475
-0.00950415
-0.00997561
-0.0104155
-0.0108251
-0.0112016
-0.0115424
-0.0118452
-0.0121072
-0.012327
-0.0125037
-0.0126352
-0.0127183
-0.0127325
0.00652121
0.00600131
0.0054747
0.00493908
0.00438867
0.00383389
0.00326327
0.00268624
0.00210198
0.00150633
0.000905959
0.000301607
-0.000307623
-0.000923326
-0.00153463
-0.00214705
-0.00275852
-0.00336784
-0.0039692
-0.00456186
-0.00514709
-0.00572152
-0.00628374
-0.00682737
-0.00735341
-0.00786127
-0.00834805
-0.0088112
-0.0092477
-0.00965426
-0.0100318
-0.010378
-0.0106901
-0.0109662
-0.0112036
-0.0114011
-0.0115576
-0.0116711
-0.0117389
-0.0117411
0.00625874
0.00576531
0.00526533
0.00475696
0.00423512
0.00370914
0.00316888
0.00262282
0.00207027
0.00150763
0.00094093
0.000370884
-0.000203247
-0.000782748
-0.00135786
-0.00193344
-0.00250756
-0.00307905
-0.00364264
-0.00419759
-0.00474495
-0.00528163
-0.00580628
-0.00631311
-0.00680295
-0.00727518
-0.00772713
-0.00815645
-0.00856033
-0.00893578
-0.00928357
-0.0096014
-0.00988694
-0.0101382
-0.0103529
-0.0105297
-0.0106677
-0.0107649
-0.0108186
-0.0108102
0.00601337
0.0055451
0.00507047
0.00458803
0.00409335
0.00359474
0.00308328
0.00256659
0.0020441
0.00151268
0.000977817
0.000440181
-0.000100821
-0.000646205
-0.00118721
-0.00172811
-0.00226711
-0.00280306
-0.00333116
-0.00385072
-0.00436257
-0.00486388
-0.00535334
-0.00582573
-0.00628169
-0.00672063
-0.00714004
-0.00753776
-0.00791123
-0.00825768
-0.00857774
-0.00886926
-0.00913009
-0.00935842
-0.00955204
-0.0097098
-0.00983073
-0.00991303
-0.00995414
-0.00993637
0.00578382
0.00533948
0.00488898
0.00443123
0.00396235
0.00348977
0.00300564
0.0025168
0.00202279
0.00152092
0.00101616
0.00050915
-5.75927e-07
-0.000513801
-0.00102266
-0.0015309
-0.00203686
-0.0025394
-0.00303418
-0.0035205
-0.00399904
-0.0044672
-0.0049237
-0.00536383
-0.00578812
-0.00619592
-0.00658493
-0.00695318
-0.00729827
-0.0076177
-0.00791193
-0.00817899
-0.00841689
-0.00862395
-0.00879815
-0.00893838
-0.0090437
-0.00911245
-0.00914221
-0.00911631
0.00556894
0.00514736
0.00471982
0.00428557
0.0038412
0.00339337
0.00293517
0.00247275
0.00200573
0.00153184
0.00105554
0.000577478
9.72843e-05
-0.000385619
-0.000864179
-0.00134166
-0.00181652
-0.00228766
-0.00275113
-0.00320624
-0.00365352
-0.00409058
-0.00451621
-0.00492614
-0.00532077
-0.00569947
-0.00606011
-0.00640082
-0.00671945
-0.0070137
-0.0072839
-0.00752823
-0.00774485
-0.00793223
-0.00808849
-0.0082126
-0.00830365
-0.0083601
-0.00837971
-0.00834681
0.00536763
0.00496768
0.00456202
0.00415013
0.00372906
0.00330476
0.00287116
0.0024338
0.00199238
0.00154496
0.00109559
0.000644886
0.000192583
-0.000261725
-0.000711711
-0.00116022
-0.00160581
-0.00204742
-0.00248146
-0.00290725
-0.00332519
-0.0037331
-0.0041298
-0.00451145
-0.00487833
-0.00522981
-0.00556393
-0.00587897
-0.00617292
-0.00644368
-0.00669151
-0.00691472
-0.00711162
-0.00728077
-0.00742048
-0.00752977
-0.00760777
-0.00765309
-0.00766363
-0.00762475
0.00517891
0.00479953
0.00441468
0.00402408
0.00362515
0.00322322
0.00281297
0.00239937
0.00198222
0.00155986
0.00113597
0.000711126
0.000285168
-0.000142168
-0.000565205
-0.000986411
-0.00140446
-0.00181829
-0.00222466
-0.0026229
-0.0030133
-0.00339386
-0.00376346
-0.00411862
-0.00445952
-0.00478555
-0.0050949
-0.00538595
-0.00565688
-0.00590577
-0.00613278
-0.00633636
-0.00651495
-0.00666723
-0.00679165
-0.00688732
-0.00695341
-0.00698865
-0.00699112
-0.00694713
0.00500183
0.00464202
0.00427698
0.00390663
0.00352875
0.00314809
0.00275999
0.00236894
0.00197479
0.00157615
0.00117636
0.00077598
0.000374912
-2.69783e-05
-0.000424597
-0.000820079
-0.00121218
-0.00159989
-0.00198024
-0.00235259
-0.00271715
-0.00307206
-0.00341625
-0.00374659
-0.00406318
-0.00436539
-0.00465158
-0.00492025
-0.0051697
-0.00539819
-0.00560581
-0.00579114
-0.00595273
-0.00608939
-0.0061997
-0.00628283
-0.00633803
-0.00636413
-0.00635939
-0.00631106
0.00483556
0.00449434
0.00414816
0.00379709
0.0034392
0.00307875
0.00271168
0.00234202
0.00196967
0.0015935
0.00121651
0.000839253
0.000461704
8.38205e-05
-0.000289822
-0.000661059
-0.00102873
-0.00139185
-0.00174774
-0.00209577
-0.00243606
-0.0027669
-0.00308729
-0.00339437
-0.00368817
-0.00396811
-0.00423264
-0.00448039
-0.0047098
-0.00491927
-0.00510883
-0.00527717
-0.00542299
-0.00554517
-0.00564243
-0.00571401
-0.00575922
-0.00577701
-0.00576581
-0.00571376
0.00467927
0.00435575
0.00402751
0.00369478
0.00335589
0.00301465
0.00266753
0.00231816
0.00196649
0.00161158
0.00125616
0.000900778
0.000545446
0.000190216
-0.000160807
-0.000509191
-0.00085385
-0.00119384
-0.00152671
-0.00185188
-0.00216939
-0.00247766
-0.00277572
-0.00306099
-0.00333346
-0.00359254
-0.00383682
-0.00406502
-0.00427571
-0.00446743
-0.00464016
-0.00479269
-0.00492384
-0.00503259
-0.00511776
-0.00517868
-0.00521471
-0.00522491
-0.00520788
-0.00515258
0.00453226
0.00422554
0.00391439
0.00359909
0.00327826
0.00295527
0.00262709
0.00229695
0.00196489
0.00163011
0.0012951
0.000960401
0.00062606
0.000292207
-3.74718e-05
-0.000364313
-0.000687297
-0.00100552
-0.00131676
-0.00162043
-0.00191654
-0.00220362
-0.00248074
-0.00274557
-0.00299805
-0.00323761
-0.00346294
-0.00367286
-0.00386606
-0.00404121
-0.00419824
-0.00433605
-0.00445354
-0.00454979
-0.00462376
-0.0046748
-0.00470235
-0.00470558
-0.00468324
-0.00462503
0.0043938
0.00410308
0.00380817
0.00350947
0.00320578
0.00290015
0.00258992
0.00227804
0.00196455
0.00164883
0.00133314
0.00101799
0.000703484
0.000389804
8.02641e-05
-0.000226268
-0.000528837
-0.000826573
-0.00111746
-0.00140093
-0.00167693
-0.00194412
-0.0022016
-0.00244727
-0.00268102
-0.00290229
-0.00310988
-0.00330271
-0.00347957
-0.00363923
-0.0037816
-0.00390567
-0.00401044
-0.00409505
-0.00415858
-0.00420045
-0.00422014
-0.00421691
-0.00418966
-0.00412878
0.00426329
0.00398777
0.00370831
0.00342538
0.00313798
0.00284883
0.00255565
0.00226107
0.00196518
0.00166751
0.00137009
0.00107343
0.000777664
0.000483023
0.000192485
-9.48998e-05
-0.00037824
-0.000656701
-0.000928442
-0.00119292
-0.00145003
-0.00169853
-0.00193759
-0.00216528
-0.00238147
-0.00258561
-0.00277661
-0.00295344
-0.00311501
-0.00326019
-0.00338886
-0.0035001
-0.003593
-0.00366675
-0.00372055
-0.00375385
-0.0037662
-0.00375695
-0.0037251
-0.00366169
0.00414012
0.00387905
0.00361428
0.00334635
0.00307442
0.00280092
0.0025239
0.00224573
0.00196653
0.00168594
0.00140581
0.00112662
0.00084856
0.000571888
0.000299277
2.99417e-05
-0.000235285
-0.000495602
-0.00074933
-0.000995945
-0.0012353
-0.00146627
-0.00168803
-0.00189886
-0.00209859
-0.00228668
-0.00246213
-0.00262399
-0.00277125
-0.00290288
-0.00301874
-0.00311799
-0.00319977
-0.00326338
-0.00330807
-0.00333336
-0.00333883
-0.0033239
-0.0032877
-0.00322181
0.00402376
0.00377641
0.0035256
0.00327193
0.00301469
0.00275606
0.00249436
0.00223174
0.00196836
0.00170393
0.00144014
0.00117749
0.000916146
0.000656429
0.000400732
0.000148409
-9.97546e-05
-0.000342993
-0.000579775
-0.000809594
-0.00103228
-0.00124677
-0.00145231
-0.00164731
-0.00183159
-0.00200465
-0.00216553
-0.00231337
-0.00244722
-0.00256618
-0.00267004
-0.00275806
-0.00282944
-0.00288355
-0.00291969
-0.00293745
-0.00293643
-0.00291612
-0.00287574
-0.00280737
0.00391367