/*--------------------------------*- C++ -*----------------------------------*\
| =========                 |                                                 |
| \\      /  F ield         | OpenFOAM: The Open Source CFD Toolbox           |
|  \\    /   O peration     | Version:  3.0.1                                 |
|   \\  /    A nd           | Web:      www.OpenFOAM.org                      |
|    \\/     M anipulation  |                                                 |
\*---------------------------------------------------------------------------*/
FoamFile
{
    version     2.0;
    format      ascii;
    class       surfaceScalarField;
    location    "500";
    object      phi;
}
// * * * * * * * * * * * * * * * * * * * * * * * * * * * * * * * * * * * * * //

dimensions      [0 3 -1 0 0 0 0];

internalField   nonuniform List<scalar> 
115520
(
0.00988377
-0.00201805
-0.00786572
0.0114543
-0.00157048
0.012204
-0.000749732
0.0125104
-0.000306435
0.0125207
-1.02726e-05
0.0123475
0.000173244
0.012123
0.000224473
0.0118964
0.000226582
0.0116725
0.000223891
0.0115156
0.000156892
0.0114294
8.62199e-05
0.0113839
4.55427e-05
0.0113764
7.53114e-06
0.0114386
-6.22484e-05
0.0115319
-9.3313e-05
0.0116437
-0.000111753
0.0117674
-0.000123757
0.0119109
-0.000143413
0.0120669
-0.000156034
0.0122215
-0.000154557
0.012371
-0.000149501
0.0125127
-0.000141772
0.0126544
-0.000141719
0.0127892
-0.000134753
0.0129116
-0.000122363
0.0130205
-0.000108963
0.0131152
-9.46825e-05
0.0131976
-8.24188e-05
0.0132705
-7.28212e-05
0.0133264
-5.59516e-05
0.0133648
-3.84053e-05
0.0133847
-1.98795e-05
0.0133841
5.68525e-07
0.0133603
2.37923e-05
0.0132919
6.83946e-05
0.0131857
0.000106216
0.0130601
0.000125658
0.0129319
0.000128166
0.0128197
0.000112223
8.28995e-05
0.0127368
0.00590236
-0.00321058
-0.00470983
0.00698605
-0.00265416
0.00799496
-0.00175864
0.00889444
-0.00120591
0.00967156
-0.000787384
0.0103364
-0.000491558
0.0108874
-0.000326533
0.0113367
-0.000222789
0.0116838
-0.000123178
0.0119716
-0.000130936
0.0122176
-0.000159717
0.0124163
-0.000153188
0.01258
-0.000156111
0.0127615
-0.000243778
0.0129335
-0.000265355
0.0130952
-0.000273376
0.0132485
-0.000277125
0.0134127
-0.000307613
0.0135823
-0.000325624
0.0137446
-0.000316884
0.0138992
-0.000304079
0.0140449
-0.00028744
0.0141942
-0.000291003
0.0143373
-0.000277912
0.0144684
-0.000253426
0.0145865
-0.000227078
0.0146908
-0.000198963
0.0147841
-0.00017569
0.0148701
-0.000158844
0.0149404
-0.000126271
0.0149951
-9.30833e-05
0.0150346
-5.93869e-05
0.0150607
-2.54915e-05
0.0150779
6.60189e-06
0.0150845
6.18075e-05
0.0150762
0.000114498
0.015053
0.000148798
0.0150156
0.000165557
0.0149647
0.000163142
0.000141079
0.0149065
0.00543666
-0.00426222
-0.00438503
0.00643494
-0.00365244
0.00737706
-0.00270075
0.00827275
-0.0021016
0.00904371
-0.00155835
0.00976791
-0.00121575
0.0103822
-0.000940806
0.0109245
-0.000765097
0.0114088
-0.000607449
0.0118218
-0.000543973
0.0121815
-0.000519407
0.0125
-0.000471686
0.0127812
-0.000437353
0.0130412
-0.000503704
0.0132819
-0.000506106
0.013506
-0.000497426
0.0137163
-0.000487492
0.0139234
-0.000514627
0.014126
-0.000528273
0.0143186
-0.00050945
0.0145013
-0.000486762
0.0146737
-0.000459905
0.014843
-0.000460252
0.015003
-0.000437937
0.0151501
-0.0004005
0.0152837
-0.00036068
0.0154032
-0.000318471
0.0155101
-0.000282563
0.015606
-0.000254779
0.0156853
-0.00020558
0.0157476
-0.000155396
0.0157925
-0.000104274
0.0158194
-5.23478e-05
0.0158296
-3.65329e-06
0.015824
6.74431e-05
0.0158008
0.00013773
0.0157619
0.000187643
0.0157089
0.000218597
0.0156412
0.000230844
0.000224202
0.015558
0.00485747
-0.00514723
-0.00397246
0.00573546
-0.00453043
0.00660074
-0.00356603
0.00745789
-0.00295875
0.00824794
-0.0023484
0.00901339
-0.0019812
0.0096998
-0.00162722
0.0103301
-0.00139536
0.0109127
-0.00119011
0.0114319
-0.0010631
0.0118994
-0.000986932
0.012325
-0.000897315
0.0127094
-0.000821701
0.0130591
-0.000853397
0.0133805
-0.000827513
0.013676
-0.000792979
0.0139484
-0.000759895
0.0142063
-0.000772499
0.0144514
-0.000773346
0.0146808
-0.000738853
0.0148952
-0.000701199
0.0150951
-0.000659795
0.0152871
-0.000652303
0.0154672
-0.000617964
0.0156322
-0.000565574
0.015782
-0.00051042
0.015916
-0.000452467
0.0160358
-0.000402403
0.0161434
-0.000362335
0.0162336
-0.000295778
0.0163061
-0.000227872
0.0163604
-0.000158662
0.0163963
-8.82376e-05
0.0164149
-2.22462e-05
0.0164164
6.60204e-05
0.016398
0.000156125
0.0163606
0.000224996
0.0163053
0.000273881
0.0162326
0.00030352
0.00031447
0.0161424
0.0045966
-0.00596263
-0.0037812
0.0054125
-0.00534633
0.00622496
-0.0043785
0.00704418
-0.00377797
0.00782145
-0.00312566
0.00859617
-0.00275592
0.00931253
-0.00234358
0.00998809
-0.00207091
0.0106306
-0.00183262
0.0112149
-0.00164743
0.0117497
-0.00152169
0.0122467
-0.00139428
0.0127045
-0.00127956
0.0131184
-0.00126725
0.0135008
-0.00120992
0.0138544
-0.00114655
0.0141809
-0.00108643
0.0144846
-0.00107616
0.0147686
-0.00105741
0.0150332
-0.00100341
0.0152792
-0.000947187
0.0155073
-0.000887916
0.0157222
-0.000867225
0.0159219
-0.000817633
0.0161046
-0.00074828
0.0162702
-0.000676017
0.0164185
-0.000600746
0.0165506
-0.000534556
0.0166681
-0.000479764
0.016767
-0.000394719
0.0168471
-0.000308011
0.0169082
-0.000219701
0.0169498
-0.00012988
0.0169731
-4.55111e-05
0.0169783
6.08319e-05
0.0169632
0.000171213
0.0169281
0.000260119
0.0168732
0.000328726
0.0167988
0.000377982
0.000408752
0.0167045
0.00441537
-0.00673686
-0.00364114
0.00519302
-0.00612398
0.00597106
-0.00515654
0.00675916
-0.00456607
0.00752054
-0.00388704
0.00828822
-0.0035236
0.00901552
-0.00307087
0.00971525
-0.00277065
0.0103937
-0.00251102
0.0110241
-0.00227785
0.0116113
-0.00210887
0.0121657
-0.00194869
0.0126845
-0.00179835
0.0131563
-0.00173913
0.0135955
-0.00164911
0.0140042
-0.00155519
0.0143831
-0.00146536
0.0147334
-0.00142643
0.0150589
-0.00138292
0.0153614
-0.00130592
0.0156418
-0.00122758
0.0159009
-0.00114698
0.0161419
-0.00110829
0.0163645
-0.0010402
0.0165677
-0.000951498
0.0167516
-0.000859905
0.0169161
-0.000765263
0.0170623
-0.000680762
0.0171915
-0.000608979
0.0173009
-0.000504069
0.0173901
-0.000397257
0.0174591
-0.000288614
0.0175074
-0.000178241
0.0175362
-7.42698e-05
0.0175457
5.13097e-05
0.017534
0.000182885
0.0175012
0.000292953
0.0174473
0.000382621
0.0173724
0.00045288
0.000504727
0.0172764
0.00431031
-0.00749238
-0.00355479
0.00506921
-0.00688288
0.0058289
-0.00591623
0.00659816
-0.00533533
0.00734828
-0.00463716
0.00810754
-0.00428286
0.00883755
-0.00380088
0.00954879
-0.00348189
0.0102471
-0.00320929
0.0109067
-0.00293754
0.0115302
-0.00273232
0.0121266
-0.00254515
0.0126924
-0.00236411
0.0132117
-0.00225845
0.0136992
-0.00213657
0.0141563
-0.00201232
0.014583
-0.00189204
0.0149774
-0.0018208
0.0153433
-0.00174887
0.0156838
-0.0016464
0.0159994
-0.00154324
0.0162909
-0.00143847
0.01656
-0.00137736
0.0168074
-0.00128765
0.0170332
-0.00117724
0.0172374
-0.00106408
0.0174201
-0.000947949
0.0175821
-0.000842785
0.0177246
-0.000751471
0.0178456
-0.00062512
0.0179451
-0.000496705
0.0180228
-0.000366308
0.0180786
-0.000234038
0.0181133
-0.000108974
0.0181273
3.72926e-05
0.018119
0.000191147
0.0180884
0.000323532
0.0180356
0.000435497
0.0179604
0.000528031
0.000602145
0.017863
0.00425024
-0.00824202
-0.0035006
0.00500271
-0.00763536
0.00575565
-0.00666917
0.00651643
-0.00609611
0.00726224
-0.00538297
0.00801691
-0.00503752
0.00874917
-0.00453315
0.00946786
-0.00420057
0.0101784
-0.00391983
0.0108579
-0.00361707
0.0115074
-0.00338175
0.0121347
-0.00317252
0.0127362
-0.00296554
0.0132939
-0.0028162
0.0138217
-0.00266436
0.0143204
-0.00251105
0.0147892
-0.00236082
0.015224
-0.00225559
0.0156283
-0.0021531
0.0160054
-0.00202356
0.0163558
-0.00189365
0.0166799
-0.00176254
0.0169779
-0.00167539
0.0172516
-0.00156132
0.0175014
-0.00142702
0.0177274
-0.00129013
0.0179299
-0.0011504
0.0181093
-0.00102223
0.0182667
-0.000908857
0.018401
-0.000759371
0.018512
-0.000607729
0.0185997
-0.00045402
0.018664
-0.000298361
0.0187057
-0.000150592
0.018725
1.7936e-05
0.0187208
0.000195317
0.0186931
0.00035129
0.0186417
0.000486842
0.0185668
0.000602922
0.00070051
0.0184685
0.00422369
-0.00899467
-0.00347104
0.00497851
-0.00839017
0.00573324
-0.0074239
0.00649395
-0.00685682
0.00724199
-0.00613101
0.00799742
-0.00579296
0.00873454
-0.00527027
0.00946088
-0.00492691
0.0101815
-0.00464041
0.0108764
-0.00431202
0.011546
-0.00405132
0.0121972
-0.00382369
0.0128263
-0.00359466
0.0134152
-0.00340516
0.0139764
-0.00322558
0.0145104
-0.00304495
0.0150155
-0.00286598
0.0154863
-0.00272642
0.0159257
-0.00259242
0.0163371
-0.002435
0.0167206
-0.00227715
0.0170762
-0.00211817
0.017403
-0.00200218
0.0177032
-0.0018615
0.0179776
-0.0017014
0.0182263
-0.00153883
0.0184494
-0.00137353
0.0186473
-0.00122014
0.0188207
-0.00108227
0.0189693
-0.000907929
0.0190929
-0.000731389
0.0191917
-0.000552743
0.0192654
-0.00037212
0.0193148
-0.000199946
0.0193402
-7.48614e-06
0.0193407
0.000194772
0.0193164
0.000375686
0.019267
0.000536171
0.0191928
0.000677125
0.000799462
0.0190939
0.00422206
-0.00975658
-0.00346014
0.00498552
-0.00915363
0.00574837
-0.00818676
0.0065155
-0.00762395
0.00727131
-0.00688682
0.00803271
-0.00655436
0.00877826
-0.00601581
0.00951439
-0.00566304
0.0102456
-0.00537165
0.0109549
-0.00502127
0.0116421
-0.0047385
0.0123133
-0.0044949
0.0129652
-0.0042466
0.0135805
-0.00402041
0.0141701
-0.00381516
0.014734
-0.00360892
0.0152706
-0.00340258
0.0157734
-0.0032292
0.0162445
-0.0030635
0.0166874
-0.0028779
0.0171017
-0.00269145
0.0174872
-0.00250366
0.0178418
-0.0023568
0.018168
-0.00218771
0.0184668
-0.00200021
0.0187383
-0.00181027
0.0189824
-0.00161767
0.0191993
-0.00143704
0.0193894
-0.0012724
0.019553
-0.00107152
0.0196901
-0.00086842
0.0198005
-0.000663201
0.0198844
-0.000456008
0.0199422
-0.0002577
0.0199743
-3.95994e-05
0.0199801
0.000188955
0.0199595
0.000396226
0.0199127
0.00058305
0.0198395
0.000750257
0.000898685
0.0197403
0.00424008
-0.0105325
-0.00346419
0.00501697
-0.00993052
0.00579279
-0.00896258
0.00657142
-0.00840258
0.00733956
-0.00765497
0.00811151
-0.0073263
0.00886909
-0.0067734
0.00961779
-0.00641173
0.0103616
-0.00611546
0.0110858
-0.00574546
0.0117901
-0.00544284
0.0124799
-0.00518468
0.0131522
-0.00491893
0.0137908
-0.00465904
0.0144054
-0.00442976
0.0149959
-0.00419932
0.0155602
-0.00396689
0.0160915
-0.00376055
0.0165914
-0.0035634
0.0170631
-0.00334959
0.0175059
-0.00313424
0.0179193
-0.00291705
0.0183004
-0.00273791
0.0186518
-0.00253906
0.0189744
-0.00232284
0.0192682
-0.0021041
0.0195332
-0.00188266
0.0197692
-0.00167299
0.0199763
-0.00147953
0.0201553
-0.0012505
0.0203061
-0.00101922
0.0204287
-0.000785822
0.0205231
-0.000550462
0.0205897
-0.000324301
0.020629
-7.88429e-05
0.0206405
0.000177467
0.0206241
0.000412551
0.02058
0.00062716
0.0205082
0.000822045
0.000997961
0.020409
0.00427416
-0.0113261
-0.00348058
0.00506826
-0.0107246
0.0058609
-0.00975521
0.0066551
-0.00919679
0.00743935
-0.00843922
0.00822575
-0.0081127
0.00899868
-0.00754633
0.00976279
-0.00717585
0.0105215
-0.0068742
0.0112622
-0.00648609
0.0119843
-0.006165
0.0126926
-0.00589298
0.0133845
-0.00561081
0.0140451
-0.00531963
0.0146828
-0.00506749
0.0152974
-0.00481388
0.0158869
-0.00455635
0.0164443
-0.00431799
0.0169707
-0.00408979
0.017469
-0.00384787
0.0179382
-0.00360347
0.0183776
-0.0033565
0.0187839
-0.00314414
0.0191593
-0.00291446
0.0195049
-0.00266844
0.0198204
-0.00241967
0.0201058
-0.00216805
0.0203606
-0.00192776
0.0205847
-0.00170363
0.0207791
-0.00144493
0.0209438
-0.00118393
0.0210788
-0.000920789
0.021184
-0.000655698
0.0212597
-0.000399997
0.0213064
-0.000125481
0.0213238
0.000160068
0.0213119
0.000424446
0.0212707
0.000668315
0.0212004
0.000892338
0.00109718
0.0211012
0.00432182
-0.0121404
-0.00350749
0.00513626
-0.0115391
0.00594889
-0.0105678
0.00676204
-0.0100099
0.00756556
-0.00924274
0.00836974
-0.00891688
0.009161
-0.00833759
0.00994324
-0.00795809
0.0107194
-0.00765035
0.0114783
-0.00724502
0.0122196
-0.00690629
0.0129472
-0.00662057
0.0136588
-0.00632244
0.014341
-0.00600181
0.0150011
-0.00572756
0.0156386
-0.00545141
0.0162517
-0.00516943
0.0168336
-0.00489986
0.0173848
-0.00464103
0.017908
-0.00437104
0.018402
-0.00409749
0.018866
-0.00382046
0.019296
-0.00357422
0.0196944
-0.00331286
0.0200621
-0.0030361
0.0203987
-0.00275623
0.0207039
-0.00247324
0.020977
-0.00220093
0.0212179
-0.0019445
0.0214276
-0.00165469
0.0216062
-0.00136248
0.0217535
-0.0010681
0.0218696
-0.00077175
0.0219544
-0.000484866
0.0220086
-0.000179622
0.022032
0.000136658
0.0220246
0.000431827
0.0219865
0.000706447
0.0219177
0.000961091
0.00119633
0.0218186
0.00438131
-0.0129781
-0.00354359
0.00521877
-0.0123765
0.00605412
-0.0114032
0.00688906
-0.0108449
0.0077146
-0.0100683
0.00853947
-0.00974174
0.00935171
-0.00914983
0.0101546
-0.00876096
0.0109505
-0.0084463
0.0117297
-0.00802422
0.0124917
-0.00766825
0.0132398
-0.00736867
0.013972
-0.00705463
0.0146761
-0.00670587
0.0153584
-0.00640988
0.0160185
-0.00611149
0.0166544
-0.00580541
0.0172598
-0.00550526
0.0178349
-0.00521609
0.0183818
-0.00491798
0.0188995
-0.00461513
0.0193868
-0.00430777
0.0198397
-0.00402714
0.0202602
-0.00373337
0.0206491
-0.00342502
0.021006
-0.00311308
0.0213304
-0.00279763
0.0216215
-0.00249203
0.0218788
-0.00220182
0.0221036
-0.00187952
0.0222958
-0.0015547
0.0224553
-0.00122761
0.0225821
-0.000898523
0.0226761
-0.000578861
0.0227377
-0.000241251
0.0227671
0.000107257
0.0227642
0.00043472
0.0227291
0.000741597
0.0226618
0.00102837
0.0012955
0.0225627
0.00445137
-0.0138416
-0.00358792
0.00531422
-0.0132394
0.00617469
-0.0122637
0.00703397
-0.0117042
0.00788395
-0.0109183
0.00873206
-0.0105899
0.00956768
-0.00998546
0.0103935
-0.00958677
0.0112115
-0.00926432
0.012013
-0.00882569
0.0127973
-0.00845258
0.0135674
-0.00813875
0.0143213
-0.00780854
0.015048
-0.00743257
0.015753
-0.0071149
0.0164358
-0.00679427
0.0170945
-0.00646415
0.0177231
-0.00613381
0.0183214
-0.00581444
0.0188915
-0.00548804
0.019432
-0.00515565
0.0199419
-0.00481761
0.0204169
-0.00450216
0.0208588
-0.0041753
0.0212683
-0.00383454
0.0216449
-0.0034896
0.0219879
-0.00314068
0.0222965
-0.0028006
0.0225699
-0.00247525
0.0228095
-0.00211915
0.0230152
-0.00176034
0.0231867
-0.00139912
0.023324
-0.00103584
0.023427
-0.000681846
0.023496
-0.000310266
0.0235313
7.19731e-05
0.0235328
0.00043324
0.0235005
0.000773892
0.0234345
0.00109431
0.00139485
0.0233352
0.00453109
-0.0147329
-0.00363977
0.00542151
-0.0141298
0.00630929
-0.0131514
0.00719517
-0.01259
0.0080718
-0.0117949
0.00894549
-0.0114635
0.0098067
-0.0108467
0.0106576
-0.0104377
0.0114998
-0.0101065
0.0123255
-0.00965136
0.0131339
-0.00926101
0.0139275
-0.00893235
0.0147045
-0.00858552
0.0154549
-0.00818292
0.0161834
-0.00784341
0.0168894
-0.0075003
0.0175712
-0.00714594
0.018223
-0.0067856
0.0188445
-0.006436
0.0194375
-0.00608099
0.0200005
-0.00571868
0.0205324
-0.00534953
0.0210291
-0.00499882
0.021492
-0.00463818
0.0219216
-0.00426419
0.0223174
-0.00388534
0.0226786
-0.00350193
0.0230043
-0.00312625
0.0232935
-0.00276448
0.0235477
-0.00237329
0.0237665
-0.00197914
0.0239497
-0.0015824
0.0240974
-0.00118349
0.0242092
-0.000793634
0.0242854
-0.000386501
0.0243264
3.09756e-05
0.0243321
0.000427568
0.0243024
0.000803526
0.0242376
0.00115912
0.00149462
0.0241379
0.0046198
-0.0156541
-0.0036986
0.00553982
-0.0150498
0.00645697
-0.0140686
0.00737157
-0.0135046
0.00827691
-0.0127002
0.00917831
-0.0123649
0.0100672
-0.0117355
0.0109452
-0.0113157
0.0118136
-0.010975
0.0126654
-0.0105031
0.0134996
-0.0100953
0.0143184
-0.00975111
0.0151199
-0.00938706
0.0158951
-0.00895812
0.0166481
-0.0085964
0.0173782
-0.00823038
0.0180836
-0.00785141
0.0187591
-0.00746102
0.0194041
-0.007081
0.02002
-0.00669691
0.0206055
-0.00630419
0.0211594
-0.00590339
0.0216775
-0.00551691
0.022161
-0.00512178
0.0226106
-0.0047137
0.0230252
-0.0043
0.0234044
-0.00388109
0.0237468
-0.00346869
0.0240516
-0.00306925
0.02432
-0.0026417
0.0245517
-0.00221086
0.0247465
-0.00177723
0.0249043
-0.00134125
0.0250247
-0.000914015
0.0251079
-0.000469762
0.0251544
-1.55275e-05
0.0251641
0.000417925
0.0251369
0.000830736
0.0250729
0.00122307
0.00159509
0.0249725
0.00471702
-0.0166071
-0.00376401
0.00566859
-0.0160014
0.00661705
-0.0150171
0.00756238
-0.01445
0.00849839
-0.0136362
0.00942954
-0.0132961
0.010348
-0.012654
0.0112551
-0.0122228
0.0121517
-0.0118716
0.0130313
-0.0113827
0.0138931
-0.010957
0.0147387
-0.0105967
0.0155663
-0.0102147
0.0163676
-0.00975946
0.0171462
-0.00937502
0.0179014
-0.0089855
0.0186313
-0.00858137
0.019331
-0.00816073
0.0199999
-0.00774993
0.0206392
-0.00733615
0.0212474
-0.00691238
0.0218233
-0.00647927
0.0223628
-0.00605647
0.0228671
-0.00562605
0.0233364
-0.00518297
0.0237698
-0.00473344
0.0241667
-0.00427796
0.0245257
-0.00382774
0.0248459
-0.00338941
0.0251284
-0.00292419
0.0253728
-0.00245533
0.025579
-0.00198338
0.0257466
-0.0015089
0.0258754
-0.00104278
0.0259655
-0.000559843
0.0260173
-6.73115e-05
0.0260307
0.000404557
0.0260056
0.00085579
0.0259422
0.00128644
0.00169657
0.0258407
0.00482242
-0.0175938
-0.00383573
0.00580742
-0.0169864
0.00678911
-0.0159987
0.0077671
-0.015428
0.00873566
-0.0146048
0.00969852
-0.014259
0.0106485
-0.0136039
0.0115865
-0.0131608
0.0125132
-0.0127983
0.0134225
-0.0122921
0.0143135
-0.0118481
0.0151874
-0.0114706
0.0160427
-0.0110699
0.0168715
-0.0105883
0.017677
-0.0101805
0.0184583
-0.0097668
0.0192138
-0.00933682
0.0199386
-0.00888554
0.0206321
-0.00844345
0.0212952
-0.00799926
0.0219265
-0.0075437
0.0225248
-0.00707749
0.023086
-0.00661771
0.0236111
-0.00615114
0.0241002
-0.00567206
0.0245524
-0.00518565
0.024967
-0.00469253
0.0253425
-0.00420331
0.025678
-0.00372487
0.0259745
-0.00322065
0.0262315
-0.00271239
0.0264489
-0.00220072
0.0266262
-0.00168627
0.0267632
-0.00117975
0.0268599
-0.000656543
0.0269167
-0.000124149
0.0269336
0.000387719
0.0269104
0.000878974
0.0268473
0.00134956
0.00179942
0.0267444
0.00493578
-0.018616
-0.00391354
0.00595608
-0.0180067
0.00697284
-0.0170155
0.00798539
-0.0164405
0.00898838
-0.0156078
0.00998485
-0.0152554
0.0109682
-0.0145873
0.0119389
-0.0141315
0.0128975
-0.0137568
0.0138383
-0.0132328
0.0147602
-0.01277
0.0156642
-0.0123746
0.0165487
-0.0119544
0.0174065
-0.0114461
0.0182402
-0.0110142
0.0190488
-0.0105755
0.0198309
-0.0101188
0.0205817
-0.0096364
0.0213007
-0.0091624
0.0219884
-0.00868694
0.0226434
-0.00819872
0.0232644
-0.00769853
0.0238477
-0.00720102
0.0243939
-0.00669735
0.0249031
-0.0061812
0.0253742
-0.00565681
0.0258066
-0.00512486
0.0261987
-0.00459545
0.0265495
-0.00407563
0.0268599
-0.00353106
0.0271295
-0.00298199
0.0273579
-0.00242914
0.0275448
-0.00187322
0.0276898
-0.00132475
0.0277929
-0.000759677
0.0278546
-0.000185819
0.0278747
0.000367666
0.0278531
0.000900576
0.0277899
0.00141274
0.00190399
0.0276853
0.00505695
-0.0196756
-0.00399733
0.00611441
-0.0190641
0.0071681
-0.0180692
0.00821709
-0.0174895
0.00925634
-0.016647
0.0102883
-0.0162874
0.0113068
-0.0156058
0.0123121
-0.0151369
0.0133044
-0.0147491
0.0142784
-0.0142068
0.0152329
-0.0137245
0.0161687
-0.0133104
0.0170839
-0.0128696
0.0179721
-0.0123343
0.0188354
-0.0118775
0.0196728
-0.0114128
0.0204826
-0.0109287
0.0212606
-0.0104144
0.0220059
-0.00990771
0.022719
-0.00940003
0.0233984
-0.00887817
0.0240429
-0.00834302
0.0246488
-0.0078069
0.0252165
-0.00726509
0.0257461
-0.00671073
0.0262364
-0.00614716
0.0266867
-0.00557515
0.0270956
-0.0050043
0.0274617
-0.00444178
0.0277861
-0.00385544
0.0280682
-0.0032641
0.0283077
-0.00266857
0.0285041
-0.00206965
0.028657
-0.00147764
0.0287664
-0.000869082
0.0288327
-0.000252116
0.0288557
0.000344645
0.0288354
0.000920884
0.0287718
0.00147631
0.00201066
0.0286652
0.00518587
-0.0207745
-0.00408701
0.00628235
-0.0201606
0.00737484
-0.0191617
0.00846214
-0.0185768
0.0095395
-0.0177244
0.0106088
-0.0173567
0.0116643
-0.0166613
0.0127061
-0.0161786
0.0137339
-0.0157769
0.0147428
-0.0152158
0.0157317
-0.0147134
0.0167008
-0.0142795
0.0176485
-0.0138173
0.0185686
-0.0132545
0.0194629
-0.0127718
0.0203303
-0.0122802
0.0211692
-0.0117675
0.0219754
-0.0112206
0.0227481
-0.0106804
0.0234875
-0.0101395
0.0241923
-0.00958291
0.0248609
-0.00901168
0.02549
-0.008436
0.0260799
-0.00785493
0.0266303
-0.00726112
0.0271402
-0.00665709
0.0276088
-0.00604372
0.0280345
-0.00543008
0.0284163
-0.00482351
0.0287548
-0.00419391
0.0290494
-0.00355879
0.0292999
-0.00291902
0.0295057
-0.0022755
0.0296665
-0.00163834
0.029782
-0.000984621
0.0298527
-0.000322857
0.0298785
0.000318889
0.0298592
0.00094018
0.0297949
0.00154061
0.00211979
0.0296858
0.00532254
-0.0219145
-0.00418254
0.00645992
-0.021298
0.00759308
-0.0202949
0.00872059
-0.0197043
0.00983793
-0.0188418
0.0109465
-0.0184653
0.0120409
-0.0177557
0.0131208
-0.0172585
0.014186
-0.016842
0.0152317
-0.0162615
0.0162565
-0.0157382
0.0172607
-0.0152837
0.0182425
-0.0147991
0.0191961
-0.0142081
0.0201229
-0.0136986
0.0210217
-0.0131791
0.0218909
-0.0126367
0.0227267
-0.0120564
0.0235279
-0.0114816
0.0242947
-0.0109063
0.0250256
-0.0103138
0.0257193
-0.00970537
0.0263724
-0.00908905
0.0269849
-0.00846749
0.0275567
-0.00783292
0.0280867
-0.00718708
0.028574
-0.00653094
0.029017
-0.00587312
0.0294145
-0.00522105
0.0297673
-0.00454667
0.0300747
-0.00386617
0.0303362
-0.00318055
0.0305515
-0.00249079
0.0307199
-0.00180679
0.0308415
-0.00110619
0.0309165
-0.00039788
0.0309448
0.000290614
0.0309263
0.000958733
0.0308609
0.00160595
0.00223176
0.0307489
0.00546698
-0.0230975
-0.00428394
0.00664718
-0.0224782
0.00782294
-0.0214706
0.00899257
-0.0208739
0.0101518
-0.020001
0.0113015
-0.019615
0.0124366
-0.0188908
0.0135566
-0.0183786
0.0146609
-0.0179464
0.0157452
-0.0173457
0.0168079
-0.0168009
0.0178488
-0.0163247
0.0188664
-0.0158166
0.019855
-0.0151967
0.0208158
-0.0146594
0.0217475
-0.0141108
0.0226485
-0.0135377
0.023515
-0.0129229
0.0243459
-0.0123126
0.0251412
-0.0117016
0.0258994
-0.011072
0.026619
-0.010425
0.0272968
-0.00976687
0.0279328
-0.00910352
0.0285267
-0.00842678
0.0290773
-0.00773769
0.0295837
-0.0070373
0.0300443
-0.00633381
0.030458
-0.00563474
0.0308253
-0.00491394
0.0311456
-0.00418643
0.0314183
-0.00345327
0.031643
-0.00271555
0.0318192
-0.00198298
0.0319468
-0.00123371
0.0320259
-0.000477048
0.0320565
0.000260016
0.0320385
0.000976799
0.0319718
0.00167265
0.00234695
0.0318566
0.00561928
-0.0243256
-0.00439123
0.00684426
-0.0237032
0.00806456
-0.0226909
0.00927828
-0.0220877
0.0104813
-0.021204
0.0116741
-0.0208078
0.0128518
-0.0200685
0.0140138
-0.0195405
0.0151592
-0.0190918
0.0162838
-0.0184703
0.017386
-0.0179031
0.0184655
-0.0174042
0.0195205
-0.0168716
0.0205458
-0.016222
0.0215422
-0.0156558
0.0225083
-0.0150769
0.0234425
-0.0144718
0.0243411
-0.0138215
0.025203
-0.0131744
0.0260279
-0.0125265
0.0268144
-0.0118585
0.027561
-0.0111716
0.0282645
-0.0104704
0.0289248
-0.00976382
0.0295414
-0.00904341
0.0301132
-0.00830954
0.0306393
-0.00756335
0.0311181
-0.00681261
0.0315483
-0.00606496
0.0319304
-0.00529605
0.0322638
-0.00451979
0.0325478
-0.00373734
0.0327822
-0.00294988
0.0329661
-0.00216692
0.0330995
-0.00136715
0.0331827
-0.000560252
0.0332155
0.000227271
0.0331977
0.00099462
0.0331293
0.00174102
0.00246573
0.0330105
0.00577956
-0.0256007
-0.00450449
0.00705133
-0.0249749
0.00831817
-0.0239577
0.00957798
-0.0233475
0.0108268
-0.0224528
0.0120646
-0.0220456
0.013287
-0.0212908
0.0144928
-0.0207464
0.0156812
-0.0202801
0.016848
-0.0196372
0.0179916
-0.0190467
0.0191114
-0.018524
0.0202056
-0.0179657
0.0212693
-0.0172857
0.0223028
-0.0166893
0.0233049
-0.016079
0.0242737
-0.0154407
0.0252059
-0.0147536
0.0261001
-0.0140686
0.0269559
-0.0133823
0.0277718
-0.0126744
0.0285464
-0.0119461
0.0292765
-0.0112005
0.029962
-0.0104493
0.0306022
-0.00968361
0.031196
-0.00890334
0.0317423
-0.00810969
0.0322398
-0.00731005
0.0326869
-0.00651215
0.0330843
-0.00569336
0.033431
-0.00486654
0.0337266
-0.00403296
0.0339707
-0.00319389
0.0341624
-0.00235867
0.0343017
-0.00150648
0.0343889
-0.000647406
0.0344236
0.000192538
0.0344058
0.00101242
0.0343355
0.00181135
0.00258845
0.0342128
0.00594796
-0.0269248
-0.0046238
0.00726858
-0.0262956
0.00858403
-0.0252732
0.00989198
-0.0246554
0.0111886
-0.0237494
0.0124735
-0.0233306
0.0137424
-0.0225598
0.0149941
-0.021998
0.0162274
-0.0215134
0.0174384
-0.0208481
0.0186252
-0.0202336
0.0197872
-0.019686
0.0209224
-0.0191009
0.0220261
-0.0183894
0.0230986
-0.0177617
0.0241382
-0.0171187
0.0251432
-0.0164457
0.0261103
-0.0157207
0.0270382
-0.0149964
0.0279262
-0.0142703
0.0287728
-0.013521
0.0295765
-0.0127498
0.0303343
-0.0119583
0.0310458
-0.0111608
0.0317105
-0.0103482
0.032327
-0.00951987
0.0328943
-0.00867702
0.033411
-0.00782673
0.0338757
-0.00697682
0.0342886
-0.00610629
0.0346491
-0.00522703
0.0349565
-0.0043404
0.0352104
-0.00344777
0.03541
-0.00255833
0.0355553
-0.00165173
0.0356463
-0.000738448
0.0356829
0.000155951
0.0356649
0.00103042
0.0355923
0.00188393
0.00271547
0.0354653
0.00612465
-0.0283002
-0.00474928
0.00749627
-0.0276672
0.00886243
-0.0266394
0.0102206
-0.0260136
0.0115671
-0.0250959
0.0129013
-0.0246647
0.0142188
-0.0238773
0.0155184
-0.0232976
0.0167986
-0.0227936
0.0180557
-0.0221052
0.0192877
-0.0214656
0.0204937
-0.0208921
0.0216718
-0.020279
0.0228173
-0.0195349
0.0239303
-0.0188747
0.0250091
-0.0181975
0.026052
-0.0174886
0.0270556
-0.0167243
0.0280185
-0.0159593
0.02894
-0.0151919
0.0298186
-0.0143996
0.0306526
-0.0135839
0.0314392
-0.0127449
0.0321779
-0.0118994
0.0328678
-0.0110382
0.0335079
-0.0101599
0.0340969
-0.00926606
0.0346335
-0.00836329
0.0351162
-0.00745952
0.0355452
-0.0065353
0.0359198
-0.00560162
0.0362393
-0.00465993
0.0365033
-0.00371172
0.036711
-0.00276601
0.0368622
-0.00180294
0.0369571
-0.000833341
0.0369954
0.00011763
0.036977
0.0010488
0.0369019
0.00195902
0.00284715
0.0367702
0.00630986
-0.029729
-0.00488107
0.00773464
-0.029092
0.00915372
-0.0280584
0.0105644
-0.0274242
0.0119629
-0.0264944
0.0133484
-0.0260501
0.0147166
-0.0252456
0.0160662
-0.0246471
0.0173954
-0.0241228
0.0187006
-0.0234104
0.0199798
-0.0227448
0.0212318
-0.0221441
0.0224546
-0.0215017
0.0236438
-0.0207242
0.0247991
-0.0200301
0.0259189
-0.0193173
0.0270012
-0.0185709
0.0280428
-0.017766
0.0290423
-0.0169588
0.0299988
-0.0161484
0.0309107
-0.0153115
0.0317763
-0.0144495
0.0325928
-0.0135614
0.0333596
-0.0126663
0.0340759
-0.0117545
0.0347404
-0.0108244
0.0353519
-0.00987761
0.0359091
-0.00892043
0.0364104
-0.00796086
0.036856
-0.00698091
0.0372452
-0.00599074
0.0375771
-0.00499191
0.0378514
-0.00398599
0.0380673
-0.00298188
0.0382245
-0.00196017
0.0383232
-0.000932071
0.0383632
7.76743e-05
0.0383442
0.00106776
0.0382663
0.00203691
0.00298384
0.0381297
0.00650379
-0.0312135
-0.00501931
0.00798402
-0.0305722
0.00945826
-0.0295327
0.0109236
-0.0288896
0.0123764
-0.0279473
0.0138154
-0.0274891
0.0152366
-0.0266668
0.0166382
-0.0260487
0.0180186
-0.0255032
0.019374
-0.0247659
0.0207024
-0.0240732
0.0220024
-0.0234441
0.0232719
-0.0227712
0.0245066
-0.0219589
0.0257061
-0.0212296
0.0268686
-0.0204798
0.0279921
-0.0196944
0.0290734
-0.0188473
0.0301111
-0.0179964
0.031104
-0.0171413
0.0320505
-0.016258
0.032949
-0.015348
0.0337967
-0.0144091
0.0345928
-0.0134623
0.0353364
-0.0124981
0.0360263
-0.0115143
0.0366612
-0.0105125
0.0372396
-0.0094989
0.0377603
-0.00848149
0.038223
-0.00744368
0.0386271
-0.00639486
0.0389719
-0.00533669
0.0392568
-0.00427085
0.039481
-0.00320612
0.0396444
-0.00212353
0.039747
-0.00103464
0.0397885
3.61666e-05
0.0397688
0.00108747
0.0396878
0.00211784
0.00312588
0.0395458
0.00670671
-0.032756
-0.00516418
0.00824473
-0.0321102
0.00977648
-0.0310644
0.0112988
-0.0304119
0.0128082
-0.0294567
0.014303
-0.0289839
0.0157794
-0.0281432
0.0172354
-0.0275047
0.0186691
-0.0269369
0.0200769
-0.0261737
0.0214566
-0.0254528
0.0228066
-0.0247942
0.0241248
-0.0240894
0.0254071
-0.0232412
0.0266527
-0.0224751
0.0278597
-0.0216868
0.0290261
-0.0208608
0.0301488
-0.0199701
0.0312262
-0.0190738
0.0322571
-0.0181722
0.0332397
-0.0172407
0.0341725
-0.0162807
0.0350525
-0.0152891
0.0358791
-0.0142889
0.0366511
-0.0132702
0.0373674
-0.0122305
0.0380265
-0.0111717
0.0386271
-0.0100995
0.0391677
-0.0090221
0.0396482
-0.00792421
0.0400679
-0.00681448
0.0404259
-0.00569468
0.0407216
-0.00456662
0.0409545
-0.00343895
0.0411241
-0.00229314
0.0412305
-0.00114109
0.0412735
-6.82478e-06
0.0412529
0.00110808
0.0411686
0.00220208
0.00327362
0.0410209
0.00691888
-0.034359
-0.00531588
0.00851713
-0.0337085
0.0101088
-0.0326561
0.0116906
-0.0319937
0.0132589
-0.0310251
0.0148119
-0.0305369
0.0163459
-0.0296771
0.0178585
-0.0290173
0.0193478
-0.0284261
0.0208102
-0.0276361
0.0222433
-0.026886
0.0236456
-0.0261964
0.0250146
-0.0254584
0.0263464
-0.024573
0.02764
-0.0237687
0.0288934
-0.0229402
0.0301046
-0.022072
0.0312705
-0.021136
0.0323893
-0.0201925
0.0334597
-0.0192426
0.03448
-0.018261
0.0354484
-0.0172491
0.0363622
-0.0162029
0.0372204
-0.0151471
0.0380221
-0.0140718
0.0387657
-0.0129742
0.03945
-0.011856
0.0400736
-0.010723
0.040635
-0.00958345
0.0411339
-0.00842314
0.0415695
-0.00725014
0.0419412
-0.00606634
0.0422482
-0.00487363
0.0424899
-0.0036806
0.0426659
-0.00246913
0.0427762
-0.00125144
0.0428206
-5.12462e-05
0.042799
0.00112975
0.0427112
0.00228987
0.0034274
0.0425574
0.00714061
-0.036025
-0.0054746
0.0088016
-0.0353695
0.0104557
-0.0343102
0.0120994
-0.0336373
0.0137292
-0.0326549
0.0153428
-0.0321506
0.0169367
-0.031271
0.0185084
-0.0305889
0.0200556
-0.0299734
0.0215749
-0.0291554
0.0230638
-0.0283749
0.0245205
-0.027653
0.0259424
-0.0268804
0.0273259
-0.0259564
0.0286695
-0.0251124
0.0299714
-0.0242421
0.0312293
-0.0233299
0.0324401
-0.0223468
0.033602
-0.0213544
0.0347137
-0.0203543
0.0357732
-0.0193205
0.0367787
-0.0182546
0.0377276
-0.0171518
0.0386189
-0.0160384
0.0394512
-0.0149042
0.0402234
-0.0137463
0.0409339
-0.0125666
0.0415813
-0.0113705
0.0421642
-0.0101663
0.0426822
-0.00894116
0.0431345
-0.00770243
0.0435203
-0.00645213
0.0438389
-0.00519227
0.0440897
-0.00393135
0.0442722
-0.00265167
0.0443865
-0.00136577
0.0444323
-9.70566e-05
0.0444095
0.00115262
0.0443179
0.00238145
0.00358757
0.0441577
0.00737221
-0.0377566
-0.00564058
0.00909856
-0.0370958
0.0108177
-0.0360293