/*--------------------------------*- C++ -*----------------------------------*\
| =========                 |                                                 |
| \\      /  F ield         | OpenFOAM: The Open Source CFD Toolbox           |
|  \\    /   O peration     | Version:  3.0.1                                 |
|   \\  /    A nd           | Web:      www.OpenFOAM.org                      |
|    \\/     M anipulation  |                                                 |
\*---------------------------------------------------------------------------*/
FoamFile
{
    version     2.0;
    format      ascii;
    class       volVectorField;
    location    "500";
    object      U;
}
// * * * * * * * * * * * * * * * * * * * * * * * * * * * * * * * * * * * * * //

dimensions      [0 1 -1 0 0 0 0];

internalField   nonuniform List<vector> 
58000
(
(0.448855 0.732966 -1.57619e-20)
(0.569603 0.869373 7.88618e-21)
(0.6931 0.930339 9.60933e-21)
(0.804289 0.931626 -2.47284e-20)
(0.899536 0.899119 1.0346e-20)
(0.971511 0.841397 8.03843e-21)
(1.0284 0.774537 0)
(1.07086 0.70733 -1.2505e-20)
(1.10325 0.639872 3.37668e-20)
(1.12955 0.576512 1.07622e-20)
(1.15015 0.52024 -2.36957e-20)
(1.1657 0.469303 0)
(1.17736 0.42265 0)
(1.18648 0.382655 9.31345e-21)
(1.19155 0.348801 0)
(1.19428 0.318928 -9.00806e-20)
(1.19514 0.292128 8.88578e-20)
(1.19508 0.268445 -9.68563e-21)
(1.19403 0.247915 7.51955e-20)
(1.19184 0.229579 -7.46141e-20)
(1.18909 0.212758 -7.22245e-20)
(1.1856 0.196974 7.16532e-20)
(1.18215 0.182499 0)
(1.17821 0.16944 6.76341e-20)
(1.1738 0.157334 -6.72564e-20)
(1.16912 0.145898 6.52156e-20)
(1.16414 0.134973 3.15693e-21)
(1.15892 0.12454 -6.37694e-20)
(1.15386 0.114914 0)
(1.14834 0.106012 3.70801e-21)
(1.14258 0.0975624 -3.35931e-20)
(1.13653 0.0895211 6.31053e-20)
(1.13009 0.0819201 -4.64917e-22)
(1.12315 0.0749529 -2.73597e-20)
(1.11459 0.068496 -1.3233e-20)
(1.10352 0.0624089 1.42093e-20)
(1.09113 0.0567696 8.70157e-22)
(1.0794 0.0517469 8.47341e-22)
(1.06877 0.047115 -2.56274e-21)
(1.06427 0.0435266 4.41279e-21)
(0.587562 0.406096 -4.82143e-21)
(0.666455 0.470657 -6.37261e-22)
(0.749567 0.519598 0)
(0.832823 0.557075 -1.06717e-21)
(0.910815 0.579797 -2.33063e-21)
(0.98605 0.591247 -6.50151e-21)
(1.05391 0.588945 2.70044e-21)
(1.11101 0.576544 9.47728e-21)
(1.16037 0.555318 -1.0762e-20)
(1.19944 0.52783 0)
(1.22802 0.498337 2.8363e-20)
(1.24936 0.467417 -8.61505e-20)
(1.26446 0.434701 -2.54557e-21)
(1.27415 0.403929 2.78546e-21)
(1.28005 0.375833 9.97893e-20)
(1.28332 0.348791 -6.27437e-20)
(1.2844 0.322671 4.48146e-20)
(1.28377 0.298613 -1.03445e-19)
(1.28205 0.27723 -6.11486e-21)
(1.27952 0.257511 5.1394e-20)
(1.27632 0.238802 6.17109e-21)
(1.27252 0.220976 0)
(1.26845 0.20467 0)
(1.26429 0.189996 0)
(1.25993 0.176229 0)
(1.25533 0.163052 5.4175e-20)
(1.25051 0.150412 -4.82914e-20)
(1.24554 0.138433 0)
(1.24066 0.127472 2.61694e-20)
(1.23579 0.117313 -4.26266e-22)
(1.23082 0.107577 -2.01495e-20)
(1.22579 0.098257 -2.93801e-21)
(1.2207 0.089385 1.97059e-20)
(1.216 0.0811217 -2.39553e-20)
(1.21198 0.0734578 0)
(1.20822 0.0663962 -1.33823e-21)
(1.20446 0.0599635 1.32296e-21)
(1.2009 0.0541862 -6.78579e-22)
(1.19771 0.0486604 -2.63182e-21)
(1.19471 0.0435745 2.727e-21)
(0.643246 0.357582 7.16081e-22)
(0.677255 0.409626 0)
(0.718386 0.455011 0)
(0.767087 0.493425 2.441e-21)
(0.820231 0.52097 2.59921e-21)
(0.876176 0.538342 -2.14683e-21)
(0.93159 0.546336 -2.4141e-21)
(0.982927 0.545185 -6.16149e-21)
(1.03212 0.536617 6.3392e-21)
(1.0764 0.522018 0)
(1.11374 0.502772 0)
(1.14606 0.479851 -5.53939e-21)
(1.17422 0.454087 2.9804e-20)
(1.19633 0.427945 8.91737e-23)
(1.21317 0.402171 -3.1881e-20)
(1.22658 0.376464 9.07305e-21)
(1.23705 0.351208 4.34801e-20)
(1.24455 0.327437 -7.87966e-21)
(1.24951 0.305643 -3.12435e-20)
(1.2527 0.285163 -2.78706e-20)
(1.25457 0.265652 3.19303e-20)
(1.25533 0.247098 8.75054e-21)
(1.25511 0.230036 0)
(1.25412 0.214465 0)
(1.25254 0.199781 -4.37539e-21)
(1.25048 0.185774 -4.09072e-20)
(1.24801 0.172409 3.64055e-20)
(1.24518 0.159784 -4.34799e-21)
(1.24213 0.148151 -2.28434e-21)
(1.23886 0.137256 -2.26722e-21)
(1.23535 0.126767 0)
(1.23165 0.116657 0)
(1.22776 0.106859 -1.52176e-20)
(1.22371 0.0974322 1.75664e-20)
(1.2196 0.0885195 2.10531e-21)
(1.2154 0.0801536 4.83171e-23)
(1.21117 0.072352 -1.08392e-21)
(1.20711 0.0651401 0)
(1.20334 0.0583386 2.09594e-21)
(1.1998 0.0516989 -2.21006e-21)
(0.713569 0.301975 1.72702e-21)
(0.736017 0.33843 -1.69626e-21)
(0.761697 0.372574 0)
(0.7916 0.404673 -3.76831e-21)
(0.825963 0.431309 8.72865e-23)
(0.86403 0.452299 2.32487e-21)
(0.904681 0.466537 1.6581e-21)
(0.944897 0.473699 -1.70511e-21)
(0.985471 0.47487 -3.79857e-23)
(1.02428 0.470311 0)
(1.05912 0.460967 -2.30008e-21)
(1.09089 0.447693 2.20006e-20)
(1.12005 0.430953 -1.50914e-20)
(1.14457 0.412357 -5.318e-21)
(1.16466 0.392801 0)
(1.18174 0.372252 1.72787e-20)
(1.19607 0.351063 -2.88269e-20)
(1.20739 0.330265 -1.7834e-20)
(1.21592 0.310549 3.03007e-20)
(1.22243 0.291561 -6.79664e-21)
(1.22739 0.273082 6.17225e-21)
(1.23097 0.255177 -6.97916e-21)
(1.23323 0.238445 -2.66853e-20)
(1.23443 0.222994 2.67602e-20)
(1.23484 0.208314 -2.95686e-21)
(1.23459 0.194213 3.26969e-21)
(1.23376 0.180669 0)
(1.23242 0.167803 3.53167e-21)
(1.2307 0.155889 0)
(1.22865 0.144706 3.29156e-21)
(1.22631 0.133942 -1.3528e-20)
(1.22368 0.123577 1.36719e-20)
(1.2208 0.113589 1.354e-20)
(1.21771 0.104071 -1.79607e-21)
(1.21448 0.0951437 -1.53295e-20)
(1.21109 0.0866863 7.54881e-21)
(1.20753 0.0785861 -6.7463e-21)
(1.2039 0.0708656 0)
(1.20029 0.0634835 8.16408e-22)
(1.19676 0.056379 0)
(0.755346 0.271289 3.52496e-21)
(0.77059 0.299268 -1.15886e-21)
(0.78803 0.326236 -1.92941e-21)
(0.808403 0.352601 1.41533e-21)
(0.832285 0.376065 0)
(0.859537 0.396494 2.04202e-21)
(0.889828 0.412706 0)
(0.921205 0.423636 5.02503e-22)
(0.954232 0.430108 1.41477e-21)
(0.987249 0.431743 1.34582e-21)
(1.01827 0.428673 1.81864e-21)
(1.0478 0.421693 -2.33873e-21)
(1.07606 0.411278 1.04573e-20)
(1.10093 0.398297 -1.32085e-20)
(1.12226 0.383487 0)
(1.14124 0.367122 3.99033e-21)
(1.15794 0.349573 0)
(1.17184 0.331696 -3.85139e-21)
(1.18294 0.314154 -6.42425e-22)
(1.19199 0.296816 -1.84785e-20)
(1.19941 0.279619 -9.89837e-21)
(1.20535 0.262694 -3.10853e-22)
(1.20977 0.246628 1.50336e-20)
(1.21286 0.23157 -2.02014e-20)
(1.215 0.21712 2.57274e-20)
(1.21636 0.203148 2.30177e-20)
(1.217 0.189657 -2.09519e-20)
(1.21701 0.176782 -1.59627e-20)
(1.21645 0.164784 2.11933e-20)
(1.21545 0.153463 -2.39073e-20)
(1.21407 0.142534 2.14274e-20)
(1.21234 0.131985 2.60469e-21)
(1.2103 0.121802 0)
(1.20798 0.112077 -9.37071e-21)
(1.20546 0.102913 9.90821e-23)
(1.20276 0.0941763 1.08197e-20)
(1.19986 0.0857444 -5.35677e-21)
(1.1968 0.0776458 5.4147e-21)
(1.19363 0.069876 -3.36664e-21)
(1.19039 0.0624232 2.87067e-21)
(0.790256 0.247061 -3.23342e-21)
(0.801811 0.268954 3.10631e-21)
(0.814579 0.290344 3.09727e-22)
(0.829178 0.311742 -2.69428e-21)
(0.846375 0.331535 2.01031e-21)
(0.866245 0.349759 -3.7228e-21)
(0.888941 0.36543 3.55346e-22)
(0.913201 0.377456 1.32798e-21)
(0.939503 0.386441 -7.64971e-22)
(0.966752 0.391683 -3.11823e-21)
(0.993317 0.392887 2.0659e-21)
(1.01944 0.390649 4.87066e-21)
(1.04524 0.385293 -7.4051e-21)
(1.06883 0.377111 2.0779e-21)
(1.08981 0.366706 3.71041e-21)
(1.1091 0.354447 1.0018e-20)
(1.12663 0.340634 -1.01777e-20)
(1.1418 0.325934 3.19864e-21)
(1.15441 0.310961 1.22425e-20)
(1.1651 0.295748 -1.28991e-20)
(1.17424 0.280315 3.72594e-21)
(1.1819 0.264826 1.46261e-20)
(1.18796 0.24984 -1.08127e-20)
(1.19259 0.235562 -3.63338e-21)
(1.19617 0.221702 -1.57108e-20)
(1.19887 0.208174 2.77703e-20)
(1.20077 0.195006 -1.62233e-20)
(1.20192 0.182343 -3.31681e-22)
(1.2024 0.170453 1.66213e-20)
(1.20233 0.159171 -3.35081e-20)
(1.2018 0.148245 1.90191e-20)
(1.20087 0.13767 -1.92991e-20)
(1.19956 0.12744 6.60682e-21)
(1.19791 0.117647 1.73471e-20)
(1.19601 0.1084 -8.73438e-21)
(1.19388 0.099564 -8.66726e-21)
(1.19152 0.0910098 8.76631e-21)
(1.18895 0.0827592 4.35398e-21)
(1.1862 0.0748234 -3.87067e-21)
(1.1833 0.0672177 0)
(0.816866 0.228879 8.32459e-22)
(0.826126 0.246566 -2.04067e-21)
(0.836144 0.263938 2.45089e-21)
(0.847361 0.281478 0)
(0.860448 0.298051 0)
(0.875557 0.31379 0)
(0.892994 0.327976 -1.90604e-21)
(0.911982 0.339648 1.68616e-21)
(0.932958 0.349321 7.34273e-22)
(0.955246 0.356242 -1.29714e-23)
(0.977608 0.359891 0)
(1.00018 0.360708 9.35929e-22)
(1.02305 0.35891 2.05465e-21)
(1.04462 0.35438 0)
(1.06439 0.347537 -5.57717e-21)
(1.08306 0.338775 -6.87205e-21)
(1.1005 0.32832 6.98691e-21)
(1.11604 0.316636 -8.5867e-21)
(1.12938 0.304237 6.23272e-21)
(1.14104 0.291256 4.5085e-21)
(1.1513 0.277771 -5.71759e-21)
(1.16019 0.263955 -4.00634e-22)
(1.1675 0.250314 8.51412e-21)
(1.17335 0.23708 3.2183e-22)
(1.17812 0.224064 0)
(1.18197 0.211222 0)
(1.18497 0.198604 -1.28626e-20)
(1.18715 0.186367 2.57809e-20)
(1.18855 0.174773 -1.00273e-20)
(1.18934 0.163695 0)
(1.18961 0.152917 -1.53933e-20)
(1.18941 0.142443 1.97136e-23)
(1.18879 0.132274 1.58103e-20)
(1.18777 0.122506 -7.03929e-21)
(1.18644 0.113243 8.85009e-21)
(1.18483 0.104361 7.10274e-21)
(1.18296 0.0957379 -7.18832e-21)
(1.18083 0.0873967 0)
(1.17848 0.0793569 -2.26177e-21)
(1.17592 0.0716432 1.69768e-21)
(0.838556 0.214259 -1.31671e-21)
(0.846289 0.228863 1.87924e-21)
(0.854506 0.243228 0)
(0.863537 0.257788 0)
(0.873944 0.271709 1.37202e-21)
(0.885877 0.285163 -1.37407e-21)
(0.899665 0.297636 1.77946e-21)
(0.914818 0.308346 -5.45295e-22)
(0.93172 0.317753 -1.38233e-21)
(0.949981 0.325168 -1.87385e-22)
(0.968689 0.330019 0)
(0.987943 0.332629 -8.10021e-22)
(1.00785 0.333144 3.29673e-21)
(1.0271 0.331206 -3.75835e-21)
(1.0452 0.32708 4.75729e-22)
(1.06266 0.321133 0)
(1.07934 0.313509 0)
(1.09459 0.304494 2.73573e-21)
(1.10804 0.294492 1.06445e-20)
(1.12008 0.283683 -2.93036e-20)
(1.13092 0.27217 1.09143e-20)
(1.14056 0.260117 3.90172e-21)
(1.14872 0.247957 2.33644e-21)
(1.15547 0.235935 7.36101e-21)
(1.16116 0.223943 -9.38615e-21)
(1.16594 0.211971 5.25335e-21)
(1.16984 0.200085 -2.27267e-21)
(1.1729 0.188444 -1.55868e-20)
(1.17512 0.177305 -5.34207e-21)
(1.17667 0.166579 0)
(1.17767 0.156085 0)
(1.17815 0.145838 -1.12781e-20)
(1.17816 0.135846 8.67368e-21)
(1.17774 0.126206 1.40265e-21)
(1.17694 0.117023 4.33607e-21)
(1.17583 0.108188 -5.90164e-21)
(1.17441 0.0995881 7.20664e-22)
(1.1727 0.0912479 0)
(1.17073 0.0831907 3.65367e-22)
(1.16853 0.0754451 2.05597e-22)
(0.85637 0.202256 -1.36388e-22)
(0.863019 0.214538 -1.20211e-22)
(0.869997 0.226619 2.162e-21)
(0.877553 0.238873 1.27027e-21)
(0.886144 0.250663 1.15825e-21)
(0.895903 0.262171 1.91669e-21)
(0.90713 0.273025 -3.74399e-21)
(0.919504 0.282604 -6.9397e-22)
(0.933355 0.291317 4.51425e-22)
(0.948463 0.298584 1.75679e-22)
(0.964167 0.303857 3.13458e-22)
(0.980552 0.307386 3.3503e-22)
(0.997735 0.30928 -1.69634e-21)
(1.0147 0.309064 4.62669e-21)
(1.03097 0.306888 -2.9734e-21)
(1.04695 0.303072 5.39663e-21)
(1.0625 0.297696 -5.96064e-22)
(1.07703 0.290906 -1.97927e-20)
(1.09013 0.282996 1.4294e-20)
(1.10209 0.274158 -2.94803e-21)
(1.11309 0.264498 0)
(1.12306 0.25416 6.705e-21)
(1.13172 0.243498 -1.01044e-20)
(1.13906 0.232754 -1.08075e-20)
(1.14541 0.221877 1.48209e-20)
(1.15087 0.210884 -1.17878e-20)
(1.15549 0.199849 1.83078e-20)
(1.15926 0.188929 2.20785e-21)
(1.16218 0.178369 2.26333e-21)
(1.16439 0.168114 -2.12825e-21)
(1.16603 0.158018 0)
(1.16712 0.148104 -2.23733e-21)
(1.16771 0.138389 2.45147e-21)
(1.16783 0.128968 6.03697e-21)
(1.16754 0.11995 -8.57098e-21)
(1.16689 0.111238 6.09767e-21)
(1.16591 0.102733 -5.60962e-21)
(1.1646 0.094461 0)
(1.16301 0.0864483 -1.2752e-21)
(1.16114 0.0787246 1.34343e-21)
(0.871302 0.192154 0)
(0.877139 0.202638 -2.60752e-21)
(0.883213 0.212939 -2.41685e-21)
(0.889714 0.223381 -1.16193e-21)
(0.897015 0.233461 -1.15065e-21)
(0.90523 0.243354 0)
(0.914615 0.252784 7.82481e-22)
(0.924949 0.261256 -1.36532e-22)
(0.936512 0.269138 -1.767e-22)
(0.94918 0.275949 -2.27612e-22)
(0.962471 0.281203 -4.9038e-22)
(0.976467 0.285102 4.99843e-22)
(0.99129 0.287733 6.40817e-22)
(1.00615 0.288593 7.39135e-22)
(1.02064 0.287751 -7.82018e-22)
(1.03507 0.285479 2.41205e-22)
(1.04933 0.281812 2.78563e-21)
(1.06289 0.276793 0)
(1.07535 0.270624 -8.10868e-21)
(1.08693 0.263487 5.97735e-21)
(1.09775 0.255478 0)
(1.10773 0.246715 1.53482e-20)
(1.11657 0.237479 -1.33354e-20)
(1.12423 0.227992 2.7064e-21)
(1.13098 0.218246 1.22769e-20)
(1.13692 0.208272 -9.44708e-21)
(1.14206 0.198146 0)
(1.14638 0.188018 0)
(1.14985 0.178119 -3.40278e-21)
(1.15261 0.168421 1.90251e-21)
(1.15479 0.158808 7.5325e-21)
(1.15641 0.149311 -5.65714e-21)
(1.15752 0.139953 0)
(1.15813 0.13083 1.40909e-22)
(1.15829 0.12205 -7.12234e-21)
(1.15807 0.113531 4.06081e-21)
(1.15749 0.105188 0)
(1.15657 0.0970473 -2.10872e-21)
(1.15533 0.0891379 1.34371e-21)
(1.15379 0.0814897 -1.37202e-22)
(0.883978 0.183505 6.99791e-22)
(0.889184 0.192561 6.67043e-22)
(0.894568 0.201449 1.05115e-21)
(0.900282 0.210445 9.54566e-23)
(0.906631 0.219144 4.81133e-25)
(0.913708 0.227704 0)
(0.92173 0.235917 -7.07132e-23)
(0.930539 0.243384 8.4418e-22)
(0.940365 0.250433 -1.10026e-21)
(0.951142 0.25667 -1.7086e-22)
(0.962513 0.261676 8.60115e-23)
(0.974555 0.26562 -6.95151e-22)
(0.987389 0.268578 -1.32089e-21)
(1.0004 0.270063 5.83337e-22)
(1.01325 0.270095 7.05274e-22)
(1.0262 0.268902 -2.74274e-21)
(1.03914 0.26649 6.93474e-22)
(1.05163 0.262835 -2.28431e-21)
(1.06329 0.258065 1.10541e-21)
(1.07429 0.252342 -8.04105e-21)
(1.08471 0.245749 6.8829e-21)
(1.09446 0.238376 -8.4413e-21)
(1.10325 0.230438 8.30695e-21)
(1.111 0.222131 -1.18327e-20)
(1.11795 0.213473 1.18409e-20)
(1.12416 0.204503 -1.32188e-20)
(1.12963 0.195294 -3.46741e-22)
(1.13434 0.185985 1.38257e-20)
(1.13823 0.176788 -2.848e-21)
(1.14143 0.167697 5.98713e-21)
(1.14404 0.158624 -3.00365e-21)
(1.14611 0.149602 0)
(1.14765 0.140663 0)
(1.14869 0.131897 1.75031e-21)
(1.14926 0.123413 -3.33254e-21)
(1.14942 0.115145 -9.12016e-22)
(1.14922 0.107018 -1.43296e-24)
(1.14865 0.0990616 3.59134e-21)
(1.14774 0.0913051 4.68454e-22)
(1.14652 0.0837786 1.23494e-22)
(0.894865 0.17599 -2.24737e-22)
(0.899564 0.183892 9.43958e-22)
(0.904403 0.191637 -7.93925e-22)
(0.909506 0.199461 -7.29268e-22)
(0.915125 0.207031 -7.47042e-22)
(0.921336 0.214489 1.0283e-21)
(0.928321 0.221672 -3.90781e-23)
(0.935961 0.228256 8.13342e-22)
(0.944448 0.23453 -1.23732e-22)
(0.953746 0.240172 -7.4369e-22)
(0.963586 0.244825 7.56618e-22)
(0.974039 0.248634 -3.48013e-23)
(0.98522 0.251669 -2.46267e-22)
(0.996653 0.253479 1.56939e-22)
(1.00805 0.254056 0)
(1.01963 0.253595 0)
(1.03132 0.252082 6.60478e-21)
(1.04272 0.249451 3.52389e-22)
(1.05352 0.245778 -3.31433e-22)
(1.06383 0.241202 2.74094e-21)
(1.07372 0.235788 5.98619e-21)
(1.08308 0.229605 -7.74921e-21)
(1.09164 0.22281 -3.86421e-21)
(1.09931 0.215571 -4.24599e-22)
(1.10628 0.207922 -2.49769e-21)
(1.1126 0.199903 8.26981e-21)
(1.11826 0.191581 0)
(1.12321 0.183081 -2.15481e-22)
(1.1274 0.174595 0)
(1.13091 0.166133 -2.4264e-21)
(1.13386 0.157628 2.7305e-21)
(1.13628 0.149118 -5.44453e-21)
(1.13819 0.140636 8.21619e-21)
(1.13958 0.132271 -7.11081e-21)
(1.1405 0.124127 8.7606e-21)
(1.141 0.116154 -2.9813e-21)
(1.14113 0.108287 7.25725e-22)
(1.14088 0.100557 3.06716e-21)
(1.14027 0.0929945 -7.76385e-22)
(1.13934 0.0856297 7.18733e-22)
(0.904306 0.169383 -3.63398e-22)
(0.908587 0.176336 -3.90309e-22)
(0.912984 0.183141 -6.01992e-22)
(0.917597 0.190002 1.35748e-21)
(0.922638 0.19664 3.6165e-21)
(0.92817 0.20318 -2.11792e-21)
(0.934343 0.209492 0)
(0.941068 0.215311 7.5592e-22)
(0.948502 0.220889 -1.25192e-21)
(0.956628 0.225961 0)
(0.965237 0.230225 -2.55408e-22)
(0.974395 0.233808 -7.66106e-23)
(0.984206 0.236773 6.83339e-22)
(0.994298 0.238717 -1.29538e-22)
(1.00443 0.239616 -9.82767e-22)
(1.0148 0.239633 2.51099e-21)
(1.02533 0.238749 1.36238e-21)
(1.0357 0.236875 -5.75351e-21)
(1.04564 0.234047 -2.47898e-22)
(1.05522 0.230383 -1.91283e-21)
(1.06449 0.225934 4.83266e-21)
(1.07337 0.220748 -2.46622e-21)
(1.0816 0.214936 -2.99614e-21)
(1.08906 0.208641 6.27968e-21)
(1.09592 0.201902 -9.48606e-21)
(1.10222 0.194757 0)
(1.10793 0.187266 7.56461e-21)
(1.11301 0.17954 -9.70689e-21)
(1.11736 0.171749 0)
(1.12109 0.163914 2.22043e-21)
(1.1243 0.155985 -4.46005e-21)
(1.12698 0.148001 4.53572e-21)
(1.12917 0.139997 -2.45782e-21)
(1.13086 0.132057 1.26254e-21)
(1.13207 0.124284 -8.81057e-23)
(1.13286 0.116637 -3.78856e-21)
(1.13327 0.109062 1.9167e-21)
(1.13331 0.101592 1.31956e-21)
(1.13298 0.0942566 -2.006e-21)
(1.13231 0.0870863 8.75855e-22)
(0.912561 0.163518 -3.30347e-22)
(0.916489 0.169679 -9.5051e-22)
(0.920518 0.1757 1.8729e-21)
(0.924729 0.181759 -1.15016e-21)
(0.929299 0.187619 -1.05784e-21)
(0.934284 0.193388 1.78375e-21)
(0.939808 0.198962 -1.58521e-21)
(0.945799 0.204121 -6.14384e-22)
(0.95239 0.209083 5.64065e-22)
(0.959572 0.213631 6.32483e-22)
(0.967182 0.217508 -4.04624e-22)
(0.975277 0.220825 5.434e-23)
(0.983952 0.22364 4.78639e-22)
(0.99291 0.225598 3.95431e-22)
(1.00196 0.226667 -9.41099e-22)
(1.01125 0.226987 8.81196e-22)
(1.02074 0.226534 1.33263e-21)
(1.03016 0.22521 -8.85414e-22)
(1.03927 0.223024 -1.5277e-21)
(1.04813 0.220077 1.76173e-21)
(1.05677 0.216406 -1.7768e-21)
(1.06511 0.212044 -2.23106e-21)
(1.07293 0.207066 -4.81456e-21)
(1.0801 0.201588 7.27157e-21)
(1.08676 0.195654 2.87222e-21)
(1.09294 0.189297 -2.79031e-21)
(1.09861 0.182568 6.34648e-21)
(1.1037 0.175565 -6.42705e-21)
(1.10814 0.168434 0)
(1.112 0.161207 -7.2866e-21)
(1.11536 0.153844 7.40646e-21)
(1.11824 0.146384 -3.93481e-21)
(1.12064 0.138863 5.94402e-21)
(1.12255 0.131361 6.19627e-21)
(1.124 0.123974 -5.37154e-21)
(1.12504 0.116673 1.13674e-21)
(1.12569 0.109413 0)
(1.12597 0.102226 -2.28052e-21)
(1.12588 0.0951435 2.03046e-21)
(1.12545 0.0881936 -4.12763e-23)
(0.91983 0.158267 6.26551e-22)
(0.923457 0.16376 5.29637e-22)
(0.927171 0.16912 4.49422e-22)
(0.931044 0.174503 0)
(0.935224 0.179705 0)
(0.939758 0.184822 0)
(0.944749 0.189768 -6.28588e-22)
(0.950141 0.194356 1.24128e-21)
(0.956044 0.198779 0)
(0.962455 0.202853 -3.37842e-22)
(0.969242 0.206363 0)
(0.976457 0.209404 2.54458e-24)
(0.984183 0.21203 9.00052e-23)
(0.992182 0.21393 -2.25314e-22)
(1.00029 0.21507 -4.50623e-22)
(1.00865 0.21557 0)
(1.01722 0.215406 -1.83985e-21)
(1.02578 0.214477 1.76041e-21)
(1.03411 0.212776 2.49588e-21)
(1.04227 0.210387 -2.52669e-21)
(1.05029 0.207339 3.11413e-21)
(1.05809 0.20365 1.65173e-21)
(1.06545 0.19937 -4.01131e-21)
(1.07228 0.194594 3.84245e-21)
(1.07869 0.189362 -6.87588e-21)
(1.08468 0.183703 -3.7199e-23)
(1.09022 0.177662 7.62007e-21)
(1.09526 0.17132 5.66176e-21)
(1.0997 0.164807 -1.45107e-20)
(1.10361 0.158155 1.22408e-20)
(1.10706 0.151336 1.71096e-21)
(1.11006 0.144387 -4.98541e-21)
(1.11261 0.137343 -1.80055e-21)
(1.11469 0.130279 -1.85945e-21)
(1.11632 0.123285 0)
(1.11755 0.11634 9.17247e-22)
(1.11841 0.109408 9.37767e-22)
(1.11889 0.10252 0)
(1.11901 0.0957067 5.03295e-22)
(1.11878 0.0889967 -3.36491e-23)
(0.926271 0.153532 3.76354e-22)
(0.929635 0.158455 1.1508e-21)
(0.933078 0.163253 -9.22963e-22)
(0.936662 0.16806 -7.72722e-22)
(0.94051 0.172702 0)
(0.944664 0.177262 0)
(0.949212 0.181668 0)
(0.954104 0.185762 0)
(0.959437 0.189713 7.07173e-22)
(0.965208 0.193365 -1.0653e-22)
(0.97131 0.196535 0)
(0.977788 0.199306 2.64733e-23)
(0.984717 0.201729 -2.67149e-23)
(0.9919 0.20353 7.30948e-22)
(0.999206 0.204677 -1.33151e-21)
(1.00675 0.205274 8.17491e-22)
(1.01451 0.205297 -6.81785e-22)
(1.02229 0.204649 7.5862e-22)
(1.02991 0.203312 -2.07088e-21)
(1.03742 0.201357 1.02778e-21)
(1.04483 0.198803 -1.36682e-21)
(1.05209 0.195662 -1.53634e-21)
(1.059 0.191963 0)
(1.06546 0.187782 -3.56238e-21)
(1.07157 0.183157 2.02542e-21)
(1.07732 0.178112 2.18291e-21)
(1.08269 0.172683 -1.9885e-22)
(1.08761 0.16694 2.27033e-21)
(1.092 0.160994 5.01781e-21)
(1.0959 0.154879 -2.52405e-21)
(1.09938 0.148575 -1.433e-21)
(1.10245 0.142114 -1.1052e-22)
(1.10508 0.135532 6.02828e-21)
(1.10729 0.128897 -6.12669e-21)
(1.10905 0.122294 0)
(1.11043 0.115709 -1.64956e-21)
(1.11145 0.10911 -8.72253e-22)
(1.1121 0.102529 0)
(1.11239 0.0959961 -2.26474e-22)
(1.11234 0.0895393 0)
(0.932007 0.149238 -1.53072e-22)
(0.93514 0.153669 -1.25247e-21)
(0.938347 0.157982 -3.38102e-22)
(0.941678 0.162296 1.45792e-21)
(0.945241 0.166456 0)
(0.94907 0.170537 -1.62106e-21)
(0.953241 0.174477 1.08614e-21)
(0.957712 0.178142 -7.83903e-22)
(0.962563 0.18168 7.87518e-22)
(0.967796 0.184957 -2.7693e-22)
(0.97332 0.187816 0)
(0.979176 0.190332 0)
(0.985428 0.19255 0)
(0.991915 0.194232 -2.91129e-22)
(0.998525 0.195346 6.66745e-22)
(1.00536 0.195985 -6.75331e-22)
(1.0124 0.196124 0)
(1.01949 0.195672 -1.98254e-21)
(1.02647 0.194607 -3.47698e-21)
(1.03337 0.192987 8.54346e-21)
(1.04022 0.190827 -4.08555e-21)
(1.04696 0.18813 0)
(1.05342 0.184912 0)
(1.0595 0.181235 1.58226e-21)
(1.06529 0.177131 4.95483e-21)
(1.07077 0.17262 -3.43426e-21)
(1.07593 0.167733 8.40757e-23)
(1.08069 0.162527 -8.26726e-21)
(1.08498 0.157098 6.33875e-21)
(1.08883 0.151478 9.70696e-23)
(1.09229 0.145654 0)
(1.09537 0.139655 -1.29161e-21)
(1.09806 0.133514 1.2478e-21)
(1.10033 0.127293 1.41132e-21)
(1.10219 0.121072 4.44897e-23)
(1.10368 0.114842 -2.1041e-21)
(1.10482 0.108576 1.47635e-21)
(1.1056 0.102305 -3.00233e-21)
(1.10604 0.0960579 1.89815e-21)
(1.10614 0.0898625 0)
(0.937141 0.145321 -3.11538e-23)
(0.940069 0.149326 -3.69129e-22)
(0.943065 0.153219 0)
(0.946174 0.157104 5.82328e-22)
(0.949488 0.160848 0)
(0.953035 0.164514 2.40426e-21)
(0.956881 0.16805 -1.30028e-22)
(0.96099 0.17134 -7.7731e-22)
(0.965431 0.174514 1.26707e-21)
(0.970205 0.177459 0)
(0.975236 0.180037 2.87328e-22)
(0.98056 0.182317 3.74381e-23)
(0.986232 0.184337 6.58288e-23)
(0.99212 0.18589 5.83679e-22)
(0.998128 0.186949 -7.1597e-22)
(1.00434 0.187591 0)
(1.01075 0.187797 0)
(1.01723 0.187481 1.15296e-22)
(1.02362 0.186618 2.95017e-21)
(1.02997 0.185258 -2.98244e-21)
(1.0363 0.183409 -2.14622e-21)
(1.04255 0.181073 -2.44176e-21)
(1.04857 0.178254 2.21889e-21)
(1.05428 0.175001 0)
(1.05973 0.171343 4.33528e-21)
(1.06494 0.167297 -1.21605e-20)
(1.06986 0.162885 8.06657e-21)
(1.07444 0.158157 -7.0771e-21)
(1.07859 0.153195 3.62727e-21)
(1.08235 0.148029 -1.54336e-22)
(1.08576 0.142648 4.17502e-21)
(1.08882 0.13708 -8.61186e-21)
(1.09151 0.131356 3.26865e-21)
(1.09382 0.125532 -4.63734e-21)
(1.09573 0.11968 3.63313e-21)
(1.0973 0.113795 -2.52414e-21)
(1.09853 0.107857 2.55628e-21)
(1.09941 0.101894 1.95969e-21)
(1.09996 0.0959342 -2.01251e-21)
(1.10019 0.0900042 0)
(0.941755 0.141732 0)
(0.944498 0.145364 0)
(0.947306 0.14889 8.97437e-26)
(0.950217 0.152402 -6.01422e-22)
(0.95331 0.155782 8.76959e-22)
(0.95661 0.159086 -3.46161e-21)
(0.960173 0.16227 8.66344e-23)
(0.963967 0.165231 -6.81887e-22)
(0.968053 0.168086 -1.52477e-21)
(0.972431 0.170735 8.49665e-22)
(0.977037 0.173061 -2.09741e-22)
(0.981902 0.175123 8.03645e-23)
(0.987075 0.176956 -2.12944e-22)
(0.992442 0.17838 -1.09537e-22)
(0.997925 0.179369 1.19332e-21)
(1.0036 0.179992 -9.68827e-22)
(1.00945 0.18023 -9.88991e-22)
(1.01538 0.180006 3.68898e-21)
(1.02125 0.179293 3.64803e-21)
(1.0271 0.178133 -5.48981e-21)
(1.03294 0.176533 4.66941e-21)
(1.03873 0.17449 -3.23225e-21)
(1.04433 0.172001 2.10818e-21)
(1.04968 0.169106 -2.12765e-21)
(1.05481 0.16583 2.32591e-21)
(1.05973 0.162185 0)
(1.0644 0.158191 0)
(1.06878 0.153888 1.57847e-21)
(1.07277 0.149344 0)
(1.07641 0.144591 -1.76907e-21)
(1.07974 0.139618 0)
(1.08275 0.13445 5.62427e-21)
(1.08541 0.129116 -1.97489e-21)
(1.08772 0.123666 1.0613e-21)
(1.08967 0.118168 1.10195e-21)
(1.09128 0.112617 0)
(1.09257 0.106998 0)
(1.09353 0.101337 -5.99334e-22)
(1.09417 0.0956626 8.99502e-22)
(1.0945 0.0899984 -5.99572e-22)
(0.945917 0.13843 2.86017e-22)
(0.948494 0.141734 0)
(0.951132 0.144938 4.28298e-23)
(0.953865 0.148122 4.83867e-22)
(0.95676 0.151183 -2.06369e-21)
(0.95984 0.15417 3.02442e-21)
(0.963153 0.157043 -6.55337e-22)
(0.966672 0.159716 0)
(0.970447 0.162288 4.82782e-22)
(0.97448 0.164675 -3.63653e-22)
(0.978716 0.166774 -2.36211e-22)
(0.983181 0.168637 1.05275e-23)
(0.987919 0.170297 -1.8815e-22)
(0.992832 0.171595 2.30873e-22)
(0.997854 0.172507 3.5471e-22)
(1.00305 0.173096 0)
(1.00841 0.173343 -6.939e-22)
(1.01384 0.173179 -1.90956e-21)
(1.01925 0.172577 -1.38793e-21)
(1.02464 0.171573 3.6044e-21)
(1.03003 0.170171 -2.56964e-21)
(1.0354 0.168366 1.62439e-21)
(1.04061 0.166152 0)
(1.04561 0.163559 2.00758e-21)
(1.05042 0.16061 -2.1941e-21)
(1.05506 0.157313 0)
(1.05948 0.153684 2.36936e-21)
(1.06364 0.149757 5.39934e-21)
(1.06747 0.145589 -8.50805e-21)
(1.07098 0.141209 5.80608e-21)
(1.0742 0.136609 3.18179e-21)
(1.07713 0.131811 -4.94238e-21)
(1.07975 0.12684 -1.78663e-21)
(1.08203 0.121743 -1.73431e-21)
(1.08398 0.116579 0)
(1.08561 0.111348 0)
(1.08694 0.106037 0)
(1.08795 0.100671 4.94374e-22)
(1.08866 0.095276 -5.23865e-22)
(1.08906 0.089875 5.10173e-22)
(0.949683 0.135381 -4.58077e-22)
(0.952108 0.138395 4.64017e-22)
(0.954592 0.141313 -4.30068e-22)
(0.957163 0.144208 -3.88546e-22)
(0.959881 0.146988 1.17018e-21)
(0.962765 0.149695 -1.33012e-21)
(0.965855 0.152295 5.1059e-23)
(0.969129 0.154712 -4.733e-22)
(0.97263 0.157034 -7.31584e-22)
(0.97636 0.159187 8.43619e-22)
(0.98027 0.161082 -2.20607e-22)
(0.984384 0.162765 -2.21494e-22)
(0.98874 0.164265 -4.51658e-23)
(0.993255 0.165443 -4.61408e-22)
(0.997869 0.166277 1.77518e-22)
(1.00264 0.166823 1.00589e-21)
(1.00757 0.167063 -1.01434e-21)
(1.01256 0.166936 8.38096e-22)
(1.01754 0.166416 2.86354e-22)
(1.02252 0.165533 -8.40606e-22)
(1.02751 0.16429 0)
(1.03248 0.162681 0)
(1.03733 0.160695 0)
(1.04199 0.158358 3.48254e-21)
(1.0465 0.155689 -3.52388e-21)
(1.05086 0.152694 0)
(1.05504 0.149385 -2.24022e-21)
(1.05898 0.145791 4.72496e-21)
(1.06263 0.141959 -7.35204e-21)
(1.06599 0.137917 0)
(1.06909 0.133656 2.79357e-21)
(1.07193 0.129198 -1.44327e-21)
(1.07448 0.124564 -3.06618e-21)
(1.07672 0.119796 4.75495e-21)
(1.07865 0.114949 -1.7305e-21)
(1.08028 0.110023 4.20377e-21)
(1.08162 0.105007 0)
(1.08267 0.099926 -3.01282e-23)
(1.08342 0.0948028 2.23716e-22)
(1.08388 0.0896604 -1.31299e-23)
(0.953102 0.132557 2.41407e-22)
(0.955388 0.135312 -3.3654e-23)
(0.957731 0.137977 4.11765e-22)
(0.960155 0.140616 6.93237e-22)
(0.962711 0.143145 0)
(0.965417 0.145604 1.15312e-21)
(0.968308 0.147963 -4.84632e-22)
(0.971362 0.150153 9.2437e-22)
(0.97462 0.152253 7.00052e-22)
(0.97808 0.154197 -4.25041e-22)
(0.981702 0.155909 4.28121e-22)
(0.985505 0.157429 4.19708e-23)
(0.989524 0.158782 7.98638e-23)
(0.993685 0.159847 -5.98252e-22)
(0.997939 0.160604 4.41777e-23)
(1.00234 0.161102 6.47953e-22)
(1.00687 0.161326 -4.90046e-22)
(1.01148 0.16122 -6.16329e-22)
(1.01607 0.16076 1.66712e-21)
(1.02067 0.159971 -8.1048e-22)
(1.02529 0.158856 1.00603e-21)
(1.0299 0.157407 0)
(1.03441 0.155614 0)
(1.03876 0.153494 0)
(1.04298 0.151066 3.32906e-21)
(1.04708 0.148333 -1.44825e-21)
(1.05101 0.145305 -3.65475e-21)
(1.05474 0.142005 -1.95193e-21)
(1.0582 0.138475 -4.41805e-21)
(1.06141 0.134737 6.68146e-21)
(1.06438 0.130786 4.92245e-21)
(1.06711 0.126639 -7.67855e-21)
(1.06958 0.122317 3.91647e-21)
(1.07177 0.117856 0)
(1.07366 0.113306 1.42982e-21)
(1.07527 0.108669 -5.29039e-21)
(1.07661 0.103935 7.90167e-22)
(1.07767 0.0991269 -8.0127e-22)
(1.07845 0.0942672 -8.2137e-22)
(1.07896 0.0893769 4.59581e-22)
(0.956213 0.129933 -3.966e-22)
(0.958372 0.132458 -2.92924e-23)
(0.960585 0.134897 6.74022e-22)
(0.962873 0.137307 -1.27096e-21)
(0.965282 0.139614 6.10013e-22)
(0.967826 0.141852 0)
(0.970537 0.143995 0)
(0.973394 0.145982 0)
(0.976433 0.147884 -3.19657e-22)
(0.979653 0.149643 1.51654e-22)
(0.983017 0.15119 -5.67841e-22)
(0.986543 0.152562 2.91048e-22)
(0.990262 0.153782 -1.15651e-22)
(0.994109 0.154741 1.7314e-22)
(0.99804 0.155424 5.72434e-22)
(1.0021 0.155872 -5.77336e-22)
(1.00629 0.156073 4.67039e-22)
(1.01054 0.155977 5.87126e-22)
(1.01479 0.155561 1.31416e-21)
(1.01905 0.154846 8.76019e-22)
(1.02333 0.153835 -2.68248e-21)
(1.02761 0.152519 2.19549e-21)
(1.0318 0.150887 -1.09619e-21)
(1.03586 0.148954 -2.68776e-21)
(1.03981 0.146733 7.01464e-21)
(1.04365 0.144229 -1.3689e-21)
(1.04734 0.141448 1.6046e-21)
(1.05086 0.138409 1.85431e-21)
(1.05414 0.135148 3.89941e-21)
(1.05719 0.131685 2.82629e-23)
(1.06003 0.128015 -2.12059e-21)
(1.06265 0.124155 -1.16788e-21)
(1.06502 0.12012 -1.22463e-21)
(1.06714 0.115944 0)
(1.06898 0.111673 -2.60309e-21)
(1.07056 0.107308 -5.28607e-23)
(1.07189 0.102842 2.06387e-21)
(1.07295 0.0982956 3.20645e-21)
(1.07374 0.0936896 -1.81247e-21)
(1.07428 0.0890437 6.98156e-22)
(0.959051 0.12749 9.10334e-22)
(0.961092 0.129807 -5.24707e-22)
(0.963185 0.132043 -9.45148e-22)
(0.965349 0.134248 2.95746e-22)
(0.967622 0.136356 0)
(0.970019 0.138398 0)
(0.972565 0.140348 0)
(0.975243 0.142155 3.18922e-22)
(0.978084 0.14388 4.60447e-22)
(0.981088 0.145472 -2.57393e-22)
(0.984221 0.146871 0)
(0.987499 0.148109 -5.81485e-23)
(0.990948 0.149207 9.44496e-23)
(0.994514 0.150069 -1.61637e-22)
(0.998156 0.150682 5.13885e-22)
(1.00192 0.151081 -1.81136e-21)
(1.00579 0.151255 7.06902e-22)
(1.00972 0.151161 -9.70774e-22)
(1.01366 0.150776 -1.25402e-21)
(1.01761 0.15012 -1.51124e-21)
(1.02158 0.149194 1.52743e-21)
(1.02555 0.147989 0)
(1.02946 0.146493 -1.0743e-21)
(1.03324 0.14472 -2.37677e-21)
(1.03693 0.14268 1.10373e-21)
(1.04053 0.140375 0)
(1.044 0.137812 -1.52779e-21)
(1.04731 0.135005 -1.52464e-21)
(1.05041 0.131986 0)
(1.0533 0.128771 -1.85678e-21)
(1.05601 0.125358 -5.82098e-21)
(1.0585 0.121758 6.04478e-21)
(1.06078 0.117989 -4.21919e-21)
(1.06282 0.114078 1.0995e-21)
(1.0646 0.110067 0)
(1.06614 0.105959 -2.40049e-21)
(1.06744 0.101747 2.43819e-21)
(1.06849 0.0974495 0)
(1.06929 0.0930868 -1.67592e-22)
(1.06984 0.0886769 0)
(0.961646 0.125209 -7.39394e-22)
(0.963578 0.12734 -2.88368e-22)
(0.96556 0.129394 2.88294e-22)
(0.967608 0.131415 0)
(0.969756 0.133344 0)
(0.972016 0.135208 -3.74406e-22)
(0.974412 0.136987 -2.64282e-22)
(0.976927 0.138631 3.36358e-22)
(0.979589 0.140197 -4.46812e-22)
(0.982397 0.141639 -2.74002e-22)
(0.98532 0.142905 2.75525e-22)
(0.988375 0.144022 0)
(0.991582 0.14501 -7.9052e-23)
(0.994894 0.145783 3.76716e-22)