/*--------------------------------*- C++ -*----------------------------------*\
| =========                 |                                                 |
| \\      /  F ield         | OpenFOAM: The Open Source CFD Toolbox           |
|  \\    /   O peration     | Version:  3.0.1                                 |
|   \\  /    A nd           | Web:      www.OpenFOAM.org                      |
|    \\/     M anipulation  |                                                 |
\*---------------------------------------------------------------------------*/
FoamFile
{
    version     2.0;
    format      ascii;
    class       volScalarField;
    location    "500";
    object      nut;
}
// * * * * * * * * * * * * * * * * * * * * * * * * * * * * * * * * * * * * * //

dimensions      [0 2 -1 0 0 0 0];

internalField   nonuniform List<scalar> 
58000
(
0.000773722
0.000685177
0.000612407
0.000557867
0.000514987
0.000480494
0.000456771
0.000436921
0.000423505
0.000415214
0.000409095
0.000405492
0.000404377
0.000403385
0.000402675
0.000402798
0.00040377
0.00040529
0.000407145
0.000409361
0.000411969
0.000414781
0.000417811
0.00042084
0.000424043
0.00042709
0.000430159
0.000433214
0.000436103
0.000438937
0.000441462
0.000443795
0.000445881
0.000447656
0.000449161
0.000450074
0.00044999
0.000449382
0.00044846
0.000449014
0.00294821
0.0026339
0.00228428
0.00196412
0.00170369
0.0014976
0.00134039
0.00121504
0.00111874
0.00104682
0.000989764
0.000946471
0.000914579
0.000888223
0.0008636
0.000844087
0.000829523
0.000816939
0.00080523
0.000795833
0.000789248
0.000783736
0.000778756
0.000773993
0.000771078
0.000768497
0.000765944
0.000763356
0.000760546
0.000758473
0.00075646
0.000753086
0.000748446
0.000742809
0.000736633
0.000728814
0.000720145
0.000711581
0.000703676
0.000700829
0.00517321
0.00479806
0.00435711
0.00389132
0.0034655
0.00309774
0.00280516
0.00256406
0.00236925
0.00221757
0.00209458
0.00199302
0.00191631
0.00185484
0.00180135
0.00175958
0.00172832
0.00170248
0.00167972
0.00166177
0.00164888
0.00163797
0.00162782
0.00161784
0.00161062
0.00160301
0.0015942
0.00158443
0.00157371
0.00156456
0.00155536
0.00154565
0.00153543
0.00152434
0.00151218
0.00149739
0.00148057
0.00146345
0.00144766
0.0014399
0.00739597
0.006983
0.00647678
0.00593935
0.00542159
0.00493747
0.00452721
0.00417463
0.00388064
0.00364652
0.00344968
0.00328529
0.00315795
0.00305407
0.00296392
0.0028922
0.00283662
0.00278999
0.00274884
0.00271549
0.00269001
0.00266798
0.00264592
0.00262347
0.00260578
0.00258975
0.00257353
0.00255684
0.00253912
0.00252296
0.00250629
0.00248828
0.00246902
0.00244862
0.00242795
0.00240432
0.002378
0.00235099
0.0023256
0.00230878
0.00959361
0.00916163
0.00862308
0.00804244
0.00746298
0.00690935
0.00641747
0.00597627
0.0055939
0.00527946
0.00500859
0.0047775
0.00459433
0.00444238
0.00430914
0.00420125
0.00411591
0.00404317
0.00397807
0.00392372
0.00387957
0.00384038
0.0038036
0.00376797
0.00373978
0.00371324
0.00368597
0.00365789
0.00362881
0.00360363
0.0035778
0.00355006
0.00352044
0.00348914
0.00345795
0.00342357
0.00338599
0.00334737
0.00331054
0.00328237
0.0117628
0.0113198
0.0107646
0.0101571
0.00954409
0.00894269
0.00839438
0.00789067
0.00743855
0.00705523
0.00671729
0.00642236
0.00618305
0.00598135
0.00580253
0.00565469
0.0055352
0.00543234
0.0053385
0.00525825
0.00519295
0.00513515
0.00508182
0.00502929
0.00498489
0.00494448
0.00490454
0.0048646
0.00482301
0.00478483
0.00474734
0.00470883
0.0046678
0.00462438
0.00458105
0.00453433
0.00448397
0.00443226
0.0043824
0.00434099
0.0139072
0.0134578
0.0128947
0.0122731
0.0116407
0.0110085
0.0104219
0.00986941
0.00936516
0.00892776
0.0085339
0.00818121
0.00788888
0.00763858
0.00741498
0.00722581
0.00706956
0.00693236
0.00680776
0.00670075
0.00661315
0.00653383
0.00645881
0.00638715
0.00632693
0.00627125
0.00621612
0.00616078
0.00610526
0.00605365
0.00600295
0.00595144
0.00589698
0.00583976
0.00578263
0.00572208
0.00565758
0.00559148
0.00552721
0.00547104
0.0160303
0.0155769
0.0150105
0.0143824
0.0137394
0.0130887
0.0124752
0.0118901
0.0113463
0.0108627
0.0104208
0.010021
0.00968238
0.00938697
0.00911797
0.00888822
0.00869635
0.00852619
0.00837055
0.00823565
0.0081215
0.00801892
0.00792227
0.00783054
0.00775062
0.00767756
0.00760663
0.0075352
0.00746298
0.00739677
0.00733162
0.00726535
0.00719595
0.00712362
0.00705142
0.00697585
0.00689609
0.00681449
0.00673464
0.00666242
0.0181358
0.0176799
0.0171126
0.016482
0.0158335
0.0151729
0.0145423
0.0139346
0.0133595
0.0128431
0.0123634
0.0119215
0.0115415
0.0112055
0.0108961
0.0106283
0.0104027
0.0101999
0.0100125
0.00984752
0.00970689
0.00958097
0.00946142
0.00934689
0.00924728
0.00915545
0.00906553
0.00897708
0.00888763
0.00880504
0.00872368
0.00864026
0.00855516
0.00846697
0.00837879
0.00828721
0.00819123
0.00809316
0.0079967
0.00790739
0.0202266
0.0197692
0.0192026
0.0185717
0.0179194
0.0172553
0.0166147
0.0159924
0.0153954
0.0148526
0.0143413
0.0138669
0.0134526
0.0130809
0.012735
0.0124313
0.0121706
0.0119357
0.0117181
0.0115256
0.0113584
0.0112067
0.0110644
0.0109272
0.0108053
0.0106941
0.0105851
0.0104778
0.0103698
0.0102693
0.0101708
0.0100702
0.00996819
0.00986318
0.009758
0.00964943
0.0095363
0.00942091
0.00930698
0.00919969
0.0223054
0.0218471
0.0212823
0.0206533
0.0200009
0.0193349
0.0186881
0.0180556
0.0174435
0.0168797
0.0163455
0.0158442
0.0154005
0.0149967
0.0146182
0.0142823
0.0139906
0.0137265
0.0134794
0.0132575
0.0130639
0.0128879
0.0127206
0.0125611
0.0124175
0.0122847
0.0121561
0.0120282
0.0119011
0.0117813
0.0116657
0.0115476
0.0114282
0.0113065
0.0111832
0.0110567
0.0109256
0.0107922
0.0106602
0.0105342
0.024374
0.0239153
0.0233528
0.0227269
0.0220765
0.0214107
0.0207601
0.0201194
0.0194985
0.0189201
0.0183675
0.0178426
0.0173737
0.016945
0.0165391
0.0161746
0.015854
0.0155601
0.0152846
0.0150366
0.0148173
0.0146154
0.0144244
0.0142405
0.0140754
0.0139215
0.0137726
0.0136242
0.0134759
0.0133376
0.0132038
0.013067
0.0129295
0.0127897
0.0126482
0.0125035
0.0123543
0.0122025
0.0120519
0.0119068
0.0264342
0.0259752
0.0254154
0.0247933
0.024146
0.0234821
0.0228304
0.0221856
0.0215578
0.0209686
0.020402
0.0198591
0.0193695
0.0189183
0.0184877
0.0180976
0.0177511
0.017431
0.0171287
0.0168533
0.0166097
0.0163836
0.0161677
0.015961
0.0157723
0.0155963
0.0154274
0.0152591
0.0150905
0.0149329
0.0147802
0.0146244
0.014468
0.0143094
0.0141493
0.0139863
0.0138186
0.0136481
0.0134785
0.0133139
0.0284875
0.028028
0.027471
0.0268531
0.0262096
0.0255487
0.0248977
0.0242511
0.0236188
0.0230212
0.0224435
0.0218869
0.0213803
0.0209092
0.0204557
0.0200422
0.0196722
0.0193294
0.0190029
0.0187026
0.0184334
0.0181845
0.0179457
0.0177163
0.017505
0.0173067
0.0171155
0.0169276
0.0167392
0.016562
0.0163902
0.0162152
0.0160388
0.0158618
0.0156832
0.0155017
0.0153153
0.0151259
0.0149369
0.0147525
0.0305354
0.0300747
0.0295204
0.0289068
0.0282677
0.0276106
0.0269614
0.0263147
0.0256797
0.0250759
0.0244882
0.0239217
0.0234014
0.0229126
0.0224421
0.0220089
0.0216172
0.0212503
0.0209002
0.0205775
0.0202848
0.020012
0.0197515
0.0194997
0.0192665
0.0190468
0.0188336
0.018626
0.0184179
0.01822
0.0180296
0.017836
0.0176406
0.0174447
0.0172473
0.017047
0.0168417
0.0166331
0.0164246
0.0162201
0.0325747
0.0321146
0.0315637
0.030955
0.0303207
0.0296679
0.0290214
0.0283758
0.0277398
0.0271321
0.0265376
0.0259622
0.0254304
0.024928
0.0244424
0.0239921
0.0235812
0.0231931
0.0228201
0.0224734
0.0221575
0.0218635
0.0215812
0.021305
0.021051
0.0208128
0.0205794
0.0203508
0.0201239
0.0199065
0.0196959
0.0194841
0.0192701
0.0190554
0.0188391
0.0186198
0.0183953
0.0181673
0.0179391
0.0177142
0.034608
0.0341487
0.0336015
0.032998
0.0323689
0.0317208
0.0310777
0.030434
0.0297983
0.0291882
0.028589
0.0280065
0.0274636
0.026951
0.0264528
0.0259875
0.0255595
0.0251521
0.0247568
0.0243894
0.024052
0.0237352
0.0234313
0.0231354
0.0228611
0.0226036
0.0223504
0.0221016
0.0218556
0.0216188
0.0213887
0.0211581
0.0209252
0.0206915
0.020456
0.0202175
0.0199738
0.0197263
0.0194782
0.0192329
0.0366359
0.0361776
0.0356344
0.0350363
0.0344127
0.0337696
0.0331303
0.0324893
0.0318547
0.0312434
0.0306412
0.0300536
0.0295026
0.0289804
0.028471
0.0279923
0.0275488
0.0271241
0.0267092
0.0263208
0.0259647
0.0256274
0.0253037
0.0249875
0.024693
0.0244163
0.0241435
0.0238749
0.02361
0.0233541
0.0231047
0.0228552
0.0226033
0.0223504
0.0220957
0.021838
0.0215749
0.0213079
0.02104
0.0207742
0.0386588
0.0382015
0.0376624
0.0370701
0.0364525
0.0358145
0.0351792
0.0345413
0.0339086
0.0332971
0.0326931
0.0321018
0.0315446
0.0310141
0.0304948
0.0300039
0.0295462
0.0291061
0.028674
0.028267
0.027893
0.0275355
0.0271908
0.0268566
0.026543
0.0262472
0.0259555
0.0256678
0.0253843
0.0251094
0.024841
0.0245728
0.0243019
0.0240298
0.0237559
0.0234791
0.0231969
0.0229104
0.0226225
0.0223364
0.0406765
0.0402205
0.0396856
0.0390994
0.0384891
0.0378556
0.0372243
0.03659
0.0359597
0.0353489
0.034744
0.0341503
0.0335881
0.0330507
0.0325228
0.0320209
0.0315489
0.0310955
0.0306483
0.030224
0.0298309
0.0294565
0.0290934
0.0287412
0.0284088
0.028093
0.0277836
0.0274777
0.0271759
0.0268825
0.0265954
0.0263087
0.0260189
0.0257276
0.0254348
0.0251391
0.0248378
0.024532
0.0242244
0.0239179
0.0426889
0.0422345
0.0417038
0.0411233
0.0405192
0.0398916
0.0392652
0.038635
0.0380078
0.0373983
0.0367936
0.0361983
0.0356322
0.0350888
0.0345536
0.0340426
0.0335591
0.0330914
0.0326306
0.0321908
0.0317808
0.0313894
0.0310085
0.0306388
0.0302883
0.0299541
0.0296268
0.0293026
0.0289825
0.028671
0.0283657
0.0280608
0.0277524
0.0274413
0.0271304
0.0268164
0.0264963
0.0261713
0.0258441
0.0255174
0.0446961
0.0442434
0.0437171
0.0431424
0.0425442
0.0419227
0.0413016
0.040676
0.0400523
0.0394451
0.0388416
0.0382454
0.0376764
0.0371276
0.0365858
0.036067
0.0355753
0.0350959
0.0346201
0.0341651
0.0337402
0.0333316
0.0329335
0.0325467
0.032179
0.0318274
0.0314828
0.0311406
0.0308014
0.030473
0.0301504
0.0298278
0.0295013
0.0291717
0.0288425
0.0285099
0.0281711
0.0278269
0.0274802
0.0271334
0.0466976
0.0462469
0.0457253
0.0451568
0.0445642
0.043949
0.0433336
0.0427132
0.0420931
0.0414884
0.0408879
0.0402907
0.0397205
0.0391661
0.0386181
0.0380918
0.0375912
0.0371012
0.036613
0.0361439
0.0357027
0.03528
0.034866
0.0344618
0.0340788
0.0337109
0.0333497
0.0329904
0.0326336
0.032288
0.0319481
0.0316081
0.031264
0.0309168
0.0305694
0.0302183
0.0298607
0.0294976
0.0291315
0.0287647
0.048693
0.0482446
0.0477281
0.0471668
0.0465792
0.0459699
0.0453605
0.0447467
0.0441295
0.0435271
0.0429284
0.0423317
0.0417602
0.0412023
0.0406493
0.0401162
0.039607
0.0391072
0.0386079
0.0381262
0.037671
0.0372341
0.0368053
0.0363855
0.035987
0.0356032
0.0352261
0.0348502
0.0344766
0.0341142
0.0337572
0.0334002
0.0330391
0.0326755
0.0323095
0.0319399
0.0315637
0.0311818
0.0307966
0.0304102
0.0506816
0.0502358
0.0497245
0.049169
0.0485876
0.0479848
0.0473814
0.0467731
0.0461603
0.0455609
0.0449642
0.0443686
0.0437963
0.0432359
0.0426788
0.0421395
0.0416223
0.0411132
0.0406037
0.0401105
0.0396426
0.0391924
0.0387496
0.0383152
0.0379019
0.0375027
0.0371101
0.0367183
0.0363285
0.0359498
0.0355762
0.0352025
0.0348246
0.034444
0.0340604
0.0336729
0.0332786
0.0328783
0.0324743
0.0320685
0.0526627
0.0522199
0.0517149
0.0511643
0.0505891
0.0499933
0.0493964
0.0487934
0.0481854
0.0475895
0.0469954
0.0464014
0.0458289
0.0452671
0.0447063
0.0441613
0.0436363
0.043118
0.0425992
0.0420955
0.0416158
0.0411533
0.0406973
0.0402492
0.0398217
0.0394078
0.0390002
0.0385931
0.0381877
0.0377933
0.0374036
0.0370137
0.0366192
0.0362218
0.0358211
0.0354162
0.0350042
0.034586
0.0341635
0.0337388
0.0546355
0.0541959
0.0536958
0.0531514
0.0525831
0.0519949
0.0514059
0.0508075
0.0502046
0.0496129
0.0490216
0.0484299
0.0478577
0.0472962
0.0467316
0.0461809
0.0456483
0.04512
0.0445932
0.04408
0.0435894
0.0431152
0.0426469
0.0421859
0.041745
0.0413169
0.0408949
0.0404732
0.0400529
0.0396433
0.0392381
0.0388323
0.0384218
0.038008
0.0375905
0.0371687
0.0367395
0.0363037
0.0358633
0.03542
0.0565991
0.0561641
0.0556679
0.0551299
0.0545689
0.0539886
0.0534062
0.052814
0.052217
0.0516311
0.0510422
0.0504541
0.0498811
0.0493187
0.0487535
0.0481976
0.047658
0.0471211
0.0465856
0.046063
0.0455621
0.0450769
0.0445971
0.0441239
0.0436702
0.0432286
0.0427925
0.0423572
0.0419229
0.0414988
0.0410785
0.0406574
0.0402312
0.0398015
0.0393678
0.0389294
0.0384835
0.0380306
0.0375726
0.0371113
0.0585521
0.0581206
0.05763
0.0570991
0.056546
0.0559748
0.0553981
0.0548123
0.0542216
0.0536403
0.0530549
0.0524697
0.0518979
0.0513345
0.0507678
0.0502096
0.0496642
0.0491183
0.0485744
0.0480431
0.0475325
0.0470371
0.0465465
0.046062
0.0455963
0.0451417
0.0446911
0.0442441
0.0437967
0.0433585
0.0429237
0.0424877
0.0420464
0.0416012
0.0411518
0.0406974
0.0402353
0.0397657
0.0392907
0.0388118
0.0604941
0.0600662
0.0595819
0.0590586
0.0585136
0.05795
0.0573804
0.0568017
0.0562188
0.0556412
0.0550599
0.0544775
0.0539085
0.0533437
0.0527747
0.0522124
0.0516609
0.0511086
0.0505577
0.0500186
0.0494993
0.0489945
0.048494
0.0479991
0.0475221
0.0470554
0.0465923
0.0461329
0.0456729
0.0452212
0.0447725
0.0443222
0.0438663
0.0434061
0.0429415
0.0424717
0.0419939
0.0415083
0.0410168
0.0405208
0.0624245
0.0620006
0.0615229
0.061008
0.060472
0.059915
0.0593527
0.0587815
0.0582051
0.0576329
0.0570571
0.0564766
0.055909
0.0553454
0.0547748
0.0542069
0.053648
0.0530909
0.0525343
0.0519884
0.0514613
0.050948
0.0504384
0.0499339
0.0494465
0.0489687
0.048494
0.0480228
0.0475505
0.0470861
0.0466239
0.0461598
0.0456896
0.0452152
0.0447361
0.0442515
0.0437585
0.0432575
0.0427501
0.0422376
0.0643426
0.063923
0.0634522
0.0629467
0.0624177
0.0618685
0.0613142
0.060752
0.0601812
0.0596145
0.0590432
0.0584661
0.0578996
0.0573353
0.0567629
0.0561924
0.0556275
0.0550652
0.0545033
0.0539515
0.0534174
0.0528965
0.0523787
0.0518654
0.0513685
0.0508804
0.0503948
0.0499125
0.0494287
0.048952
0.048477
0.0479992
0.0475153
0.0470276
0.0465347
0.046036
0.0455285
0.0450126
0.0444898
0.0439616
0.0662474
0.0658324
0.0653687
0.064871
0.0643503
0.0638099
0.063264
0.0627095
0.0621462
0.0615864
0.0610189
0.0604463
0.0598812
0.0593148
0.0587395
0.0581642
0.0575962
0.05703
0.0564637
0.0559069
0.0553667
0.054839
0.0543138
0.0537926
0.053287
0.0527894
0.0522938
0.0518011
0.0513064
0.0508181
0.0503306
0.0498391
0.0493431
0.0488428
0.0483368
0.0478244
0.047303
0.0467728
0.0462353
0.0456919
0.068138
0.0677279
0.0672726
0.0667819
0.0662697
0.0657388
0.0652024
0.0646545
0.0640995
0.0635446
0.062983
0.0624127
0.0618488
0.0612829
0.0607052
0.0601254
0.0595541
0.0589845
0.0584147
0.0578536
0.0573083
0.0567746
0.0562429
0.0557147
0.0552011
0.0546948
0.05419
0.0536875
0.0531827
0.0526835
0.0521844
0.0516808
0.0511727
0.0506601
0.0501415
0.0496161
0.0490814
0.0485375
0.0479859
0.0474281
0.0700134
0.069608
0.06916
0.0686779
0.0681753
0.0676547
0.0671258
0.0665856
0.0660376
0.0654885
0.0649317
0.0643657
0.0638027
0.0632355
0.0626536
0.0620728
0.0614995
0.0609277
0.0603553
0.0597908
0.0592412
0.0587024
0.0581651
0.0576306
0.0571099
0.0565957
0.0560823
0.0555709
0.0550565
0.0545472
0.0540374
0.0535227
0.0530031
0.0524788
0.0519481
0.0514103
0.0508628
0.0503058
0.0497409
0.0491694
0.0718729
0.0714721
0.0710313
0.0705585
0.0700663
0.0695541
0.069034
0.0685032
0.0679615
0.0674193
0.0668663
0.0663016
0.0657385
0.0651688
0.0645871
0.0640061
0.0634319
0.0628587
0.0622846
0.0617178
0.0611647
0.0606217
0.0600796
0.0595396
0.0590125
0.0584911
0.05797
0.0574502
0.0569271
0.0564083
0.0558886
0.0553634
0.0548331
0.0542978
0.0537557
0.0532061
0.0526465
0.0520771
0.0514995
0.0509153
0.0737157
0.0733195
0.0728857
0.0724229
0.0719391
0.0714366
0.0709267
0.0704035
0.0698701
0.069333
0.0687826
0.0682211
0.0676581
0.0670868
0.0665054
0.0659248
0.0653506
0.0647769
0.0642021
0.0636337
0.063078
0.0625316
0.0619855
0.0614409
0.0609081
0.0603803
0.0598521
0.0593246
0.0587932
0.0582657
0.0577369
0.0572022
0.0566619
0.0561162
0.0555633
0.0550026
0.0544315
0.0538505
0.0532611
0.0526651
0.0755413
0.0751492
0.0747218
0.0742676
0.0737935
0.0733018
0.0728004
0.0722865
0.0717596
0.0712261
0.0706802
0.0701205
0.069556
0.0689868
0.0684073
0.0678282
0.0672548
0.0666816
0.0661068
0.0655378
0.0649805
0.0644315
0.0638821
0.0633336
0.0627959
0.0622623
0.0617277
0.0611932
0.0606536
0.0601186
0.0595815
0.0590381
0.0584886
0.0579333
0.0573703
0.056799
0.0562172
0.0556251
0.0550247
0.0544181
0.0773488
0.0769607
0.0765392
0.0760929
0.0756291
0.0751464
0.0746551
0.074149
0.0736273
0.0730989
0.072556
0.0719965
0.0714352
0.0708689
0.0702924
0.0697158
0.0691441
0.0685722
0.0679983
0.0674296
0.0668715
0.0663207
0.0657687
0.0652169
0.0646749
0.0641363
0.063596
0.0630552
0.0625088
0.0619666
0.0614217
0.0608702
0.0603123
0.0597481
0.0591756
0.0585944
0.0580025
0.0574002
0.0567898
0.0561737
0.0791376
0.0787535
0.0783374
0.077898
0.0774426
0.0769703
0.0764878
0.0759885
0.0754742
0.0749485
0.0744076
0.0738529
0.0732956
0.0727332
0.0721604
0.071587
0.0710178
0.070448
0.0698758
0.0693083
0.0687507
0.0681985
0.0676444
0.0670899
0.0665444
0.0660014
0.0654562
0.0649098
0.0643573
0.0638084
0.0632566
0.0626978
0.0621325
0.0615598
0.0609784
0.0603879
0.0597866
0.0591749
0.0585554
0.0579313
0.0809071
0.0805268
0.080116
0.0796828
0.0792345
0.0787702
0.0782959
0.0778058
0.0772986
0.0767764
0.0762396
0.0756898
0.0751373
0.0745793
0.0740109
0.0734414
0.0728755
0.0723083
0.0717386
0.0711731
0.070618
0.0700641
0.0695083
0.0689518
0.0684034
0.0678566
0.0673071
0.0667559
0.066198
0.0656432
0.0650849
0.0645197
0.0639488
0.0633676
0.0627776
0.0621784
0.0615684
0.0609482
0.0603208
0.0596901
0.0826565
0.0822802
0.0818745
0.0814473
0.0810055
0.0805482
0.0800811
0.0795985
0.0790983
0.0785821
0.0780511
0.077507
0.0769598
0.0764069
0.0758435
0.0752786
0.0747164
0.0741526
0.0735858
0.0730227
0.0724692
0.0719155
0.0713591
0.0708015
0.0702509
0.0697011
0.069148
0.0685924
0.0680298
0.0674697
0.0669057
0.0663345
0.0657574
0.0651692
0.0645717
0.0639648
0.0633469
0.0627192
0.062085
0.0614495
0.0843851
0.0840129
0.0836124
0.0831911
0.0827556
0.082305
0.0818446
0.0813689
0.0808758
0.0803663
0.0798418
0.0793042
0.0787629
0.0782156
0.0776578
0.0770979
0.07654
0.0759801
0.0754169
0.0748567
0.0743049
0.0737522
0.0731962
0.0726383
0.0720862
0.071534
0.0709777
0.0704183
0.0698516
0.0692868
0.0687178
0.0681413
0.0675584
0.066964
0.0663599
0.0657461
0.0651213
0.064487
0.0638473
0.0632089
0.0860921
0.0857242
0.085329
0.0849137
0.0844845
0.0840405
0.0835867
0.0831179
0.0826317
0.0821292
0.0816116
0.0810809
0.0805461
0.0800048
0.079453
0.0788987
0.0783457
0.0777903
0.0772312
0.0766745
0.076125
0.0755738
0.0750188
0.0744617
0.0739085
0.0733542
0.0727952
0.0722323
0.0716622
0.0710936
0.0705203
0.0699391
0.0693511
0.0687513
0.0681413
0.0675214
0.0668906
0.0662507
0.0656068
0.0649674
0.0877767
0.0874132
0.0870235
0.0866144
0.0861915
0.0857542
0.0853071
0.0848451
0.0843661
0.0838708
0.0833604
0.0828369
0.0823089
0.0817741
0.0812287
0.0806803
0.0801327
0.0795823
0.0790281
0.0784759
0.0779288
0.0773793
0.0768261
0.0762714
0.0757167
0.0751607
0.0745997
0.0740329
0.0734606
0.0728891
0.0723122
0.0717271
0.0711348
0.0705302
0.0699151
0.0692899
0.0686538
0.0680094
0.0673626
0.0667244
0.0894382
0.0890794
0.0886953
0.0882924
0.0878761
0.0874455
0.0870052
0.0865502
0.0860785
0.0855905
0.0850876
0.0845716
0.0840507
0.0835227
0.0829841
0.082442
0.0819002
0.0813553
0.0808067
0.0802606
0.0797154
0.0791678
0.0786163
0.0780632
0.0775086
0.076952
0.0763909
0.075821
0.0752464
0.0746724
0.0740928
0.0735046
0.0729087
0.0723
0.0716805
0.0710506
0.0704101
0.0697621
0.0691138
0.068479
0.0910757
0.0907218
0.0903435
0.0899471
0.0895374
0.0891138
0.0886804
0.0882326
0.0877683
0.0872878
0.0867926
0.0862844
0.0857708
0.08525
0.0847184
0.0841832
0.0836476
0.0831086
0.0825656
0.0820246
0.0814829
0.080938
0.0803889
0.0798374
0.0792836
0.0787267
0.0781635
0.0775936
0.0770182
0.0764427
0.0758612
0.075271
0.0746719
0.0740597
0.0734363
0.0728025
0.0721584
0.0715077
0.0708594
0.0702302
0.0926885
0.0923397
0.0919675
0.0915776
0.0911747
0.0907582
0.090332
0.0898915
0.0894348
0.0889621
0.0884748
0.0879746
0.0874686
0.0869552
0.0864311
0.085903
0.0853741
0.0848415
0.0843045
0.0837685
0.0832308
0.0826893
0.082143
0.0815937
0.081041
0.0804844
0.0799211
0.0793511
0.0787753
0.0781989
0.0776163
0.077026
0.0764236
0.0758081
0.0751815
0.0745445
0.0738975
0.0732453
0.0725983
0.071977
0.094276
0.0939325
0.0935665
0.0931833
0.0927874
0.0923782
0.0919592
0.0915263
0.0910774
0.0906127
0.0901335
0.0896414
0.0891433
0.0886376
0.0881213
0.0876006
0.0870789
0.0865533
0.0860231
0.0854921
0.0849585
0.0844208
0.0838783
0.0833312
0.08278
0.0822244
0.0816617
0.0810922
0.0805167
0.07994
0.0793568
0.0787656
0.0781614
0.0775438
0.0769148
0.0762754
0.0756266
0.0749737
0.0743293
0.0737183
0.0958375
0.0954995
0.0951398
0.0947634
0.0943747
0.0939729
0.0935615
0.0931363
0.0926954
0.0922389
0.091768
0.0912842
0.0907942
0.0902965
0.0897882
0.0892754
0.0887613
0.0882433
0.0877215
0.0871945
0.0866649
0.0861315
0.0855944
0.085049
0.0844995
0.0839453
0.083384
0.0828158
0.0822415
0.0816652
0.0810817
0.0804898
0.0798847
0.0792658
0.0786353
0.0779944
0.0773445
0.076692
0.0760515
0.0754528
0.0973724
0.0970401
0.0966868
0.0963175
0.095936
0.0955418
0.095138
0.0947207
0.0942881
0.09384
0.0933775
0.0929024
0.0924207
0.0919311
0.0914311
0.0909266
0.0904204
0.0899105
0.0893954
0.0888738
0.0883489
0.0878198
0.087287
0.0867449
0.086198
0.0856459
0.0850869
0.0845211
0.0839491
0.0833736
0.0827901
0.0821981
0.0815926
0.0809733
0.0803421
0.0797004
0.0790502
0.0783989
0.0777636
0.0771792
0.0988801
0.0985536
0.098207
0.0978448
0.0974707
0.0970842
0.0966882
0.0962791
0.095855
0.0954154
0.0949617
0.0944952
0.0940219
0.0935408
0.0930494
0.0925533
0.0920556
0.0915552
0.0910456
0.0905293
0.0900095
0.0894851
0.0889564
0.0884183
0.0878748
0.087325
0.0867695
0.0862072
0.0856395
0.0850644
0.0844809
0.0838896
0.0832846
0.0826655
0.0820343
0.0813926
0.0807428
0.0800936
0.0794645
0.0788963
0.10036
0.10004
0.0996998
0.0993448
0.0989783
0.0985996
0.0982116
0.0978107
0.0973954
0.0969648
0.0965197
0.096062
0.0955974
0.0951248
0.0946423
0.094155
0.0936658
0.0931733
0.0926705
0.0921604
0.0916462
0.0911267
0.0906022
0.0900687
0.0895296
0.0889836
0.0884316
0.0878733
0.0873086
0.0867355
0.0861536
0.0855636
0.0849597
0.0843415
0.083711
0.08307
0.0824213
0.081775
0.0811529
0.0806025
0.101812
0.101498
0.101165
0.100817
0.100458
0.100087
0.0997074
0.0993151
0.0989088
0.0984878
0.0980512
0.0976022
0.0971463
0.0966826
0.0962093
0.0957312
0.095251
0.0947659
0.0942699
0.0937666
0.0932585
0.0927442
0.0922231
0.0916957
0.0911617
0.0906206
0.0900736
0.0895195
0.0889578
0.0883872
0.0878074
0.0872193
0.0866172
0.0860006
0.0853715
0.0847317
0.0840849
0.0834419
0.0828278
0.0822963
0.103236
0.102927
0.102601
0.102261
0.10191
0.101547
0.101175
0.100791
0.100394
0.0999844
0.0995554
0.099115
0.098668
0.0982135
0.0977497
0.0972813
0.0968114
0.0963326
0.0958435
0.0953472
0.0948459
0.0943377
0.0938218
0.0932997
0.0927706
0.092235
0.091695
0.0911452
0.090586
0.090018
0.0894412
0.0888558
0.0882563
0.0876419
0.0870147
0.0863769
0.0857324
0.0850935
0.0844879
0.0839764
0.10463
0.104329
0.104009
0.103677
0.103333
0.102978
0.102615
0.102239
0.101851
0.101451
0.101031
0.1006
0.100162
0.099717
0.0992631
0.0988046
0.0983431
0.0978718
0.0973903
0.0969017
0.0964083
0.0959064
0.0953962
0.0948795
0.0943549
0.0938255
0.0932915
0.0927467
0.092191
0.091627
0.0910544
0.0904727
0.0898762
0.0892646
0.08864
0.0880046
0.0873631
0.0867286
0.086132
0.0856413
0.105996
0.1057
0.105389
0.105063
0.104728
0.104381
0.104026
0.103659
0.103279
0.102888
0.102478
0.102056
0.101628
0.101193
0.100749
0.100302
0.099847
0.0993832
0.0989096
0.0984295
0.0979457
0.0974496
0.0969452
0.0964343
0.0959155
0.0953921
0.0948639
0.0943246
0.0937739
0.0932147
0.0926472
0.0920693
0.0914763
0.0908679
0.0902464
0.0896139
0.0889758
0.0883463
0.087759
0.0872894
0.107332
0.107043
0.106739
0.106421
0.106093
0.105755
0.105407
0.105049
0.104679
0.104296
0.103895
0.103484
0.103065
0.10264
0.102207
0.101768
0.101322
0.100866
0.100401
0.0999297
0.0994542
0.0989654
0.0984678
0.0979632
0.097451
0.0969341
0.0964122
0.0958789
0.0953338
0.0947802
0.0942194
0.093645
0.0930555
0.0924508
0.0918328
0.0912039
0.0905697
0.0899454
0.0893677
0.0889196
0.108639
0.108357
0.108059
0.107749
0.107429
0.107099
0.10676
0.10641
0.106049
0.105675
0.105284
0.104882
0.104474
0.10406
0.103637
0.103206
0.102768
0.10232
0.101864
0.101402
0.100935
0.100454
0.0999635
0.099465
0.0989609
0.0984513
0.097936
0.097409
0.09687
0.0963222
0.0957671
0.0951975
0.0946125
0.0940122
0.0933984
0.0927737
0.0921438
0.0915252
0.0909571
0.0905303
0.109916
0.10964
0.10935
0.109048
0.108736
0.108414
0.108083
0.107742
0.10739
0.107025
0.106644
0.106252
0.105853
0.105451
0.105036
0.104614
0.104184
0.103745
0.103299
0.102848
0.102388
0.101915
0.101432
0.100942
0.100445
0.0999434
0.099435
0.0989143
0.0983817
0.0978401
0.0972907
0.0967265
0.0961467
0.0955514
0.0949424
0.0943223
0.0936973
0.0930846
0.0925263
0.0921206
0.111163
0.110894
0.110612
0.110317
0.110013
0.109699
0.109377
0.109045
0.108701
0.108346
0.107974
0.107592
0.107203
0.106809
0.106404
0.105991
0.10557
0.105141
0.104705
0.104264
0.103812
0.103348
0.102874
0.102392
0.101904
0.10141
0.100909
0.100394
0.0998681
0.0993335
0.09879
0.0982315
0.0976573
0.0970676
0.096464
0.0958491
0.0952295
0.0946231
0.0940743
0.0936892
0.11238
0.112119
0.111843
0.111557
0.111261
0.110955
0.110642
0.110318
0.109983
0.109638
0.109276
0.108903
0.108523
0.108137
0.107742
0.107338
0.106927
0.106508
0.106084
0.10565
0.105207
0.104753
0.104287
0.103815
0.103338
0.102852
0.102356
0.101847
0.101328
0.100802
0.100264
0.0997118
0.0991437
0.0985601
0.0979625
0.0973535
0.0967397
0.0961398
0.0956005
0.0952353
0.113568
0.113314
0.113046
0.112767
0.112479
0.112182
0.111876
0.111561
0.111236
0.1109
0.110549
0.110185
0.109813
0.109435
0.10905
0.108656
0.108255
0.107845
0.10743
0.107005
0.106571
0.106127
0.105671
0.10521
0.104741
0.104263
0.103774
0.103273
0.102761
0.102243
0.101712
0.101166
0.100605
0.100029
0.0994376
0.098835
0.0982274
0.0976342
0.0971042
0.0967582
0.114727
0.114479
0.114218
0.113947
0.113667
0.113378
0.113081
0.112775
0.112459
0.112133
0.111793
0.111437
0.111075
0.110705
0.11033
0.109945
0.109553
0.109153
0.108747
0.108331
0.107906
0.107472
0.107026
0.106575
0.106114
0.105644
0.105163
0.10467
0.104166
0.103656
0.103133
0.102595
0.102042
0.101472
0.100889
0.100293
0.0996923
0.0991059
0.0985849
0.0982571
0.115855
0.115615
0.115361
0.115098
0.114826
0.114545
0.114257
0.113959
0.113652
0.113336
0.113006
0.11266
0.112307
0.111947
0.111581
0.111205
0.110822
0.110431
0.110034
0.109627
0.109213
0.108788
0.108353
0.107911
0.107458
0.106997
0.106524
0.106039
0.105544
0.105043
0.104528
0.103998
0.103453
0.102892
0.102316
0.101728
0.101134
0.100555
0.100042
0.0997315
0.116955
0.116721
0.116475
0.11622
0.115956
0.115683
0.115403
0.115114
0.114816
0.114509
0.114189
0.113853
0.113509
0.113159
0.112802
0.112437
0.112063
0.111681
0.11129
0.110895
0.11049
0.110075
0.10965
0.109217
0.108774
0.108321
0.107857
0.107382
0.106896
0.106403
0.105897
0.105376
0.104839
0.104286
0.103719
0.103138
0.102552
0.10198
0.101476
0.101181
0.118025
0.117798
0.11756
0.117312
0.117056
0.116792
0.11652
0.11624
0.115951
0.115653
0.115342
0.115017
0.114683
0.114342
0.113995
0.113638
0.113274
0.112902
0.11252
0.112134
0.111739
0.111334
0.110919
0.110495
0.110061
0.109617
0.109163
0.108697
0.10822
0.107736
0.10724
0.106728
0.1062
0.105656
0.105097
0.104525
0.103946
0.103381
0.102885
0.102605
0.119067
0.118847
0.118616
0.118376
0.118128
0.117872
0.117608
0.117336
0.117056
0.116767
0.116467
0.116152
0.115828
0.115496
0.115158
0.114811
0.114457
0.114094
0.113722
0.113345
0.112959
0.112564
0.112159
0.111743
0.11132
0.110886
0.110441
0.109985
0.109518
0.109044
0.108557
0.108055
0.107536
0.107001
0.106451
0.105887
0.105317
0.104759
0.104271
0.104004
0.12008
0.119867
0.119643
0.119411
0.119171
0.118923
0.118668
0.118404
0.118133
0.117853
0.117563
0.117259
0.116945
0.116622
0.116291
0.115956
0.115612
0.115258
0.114896
0.114527
0.114152
0.113767
0.113371
0.112965
0.112551
0.112127
0.111692
0.111246
0.11079
0.110326
0.109849
0.109356
0.108847
0.108321
0.10778
0.107225
0.106663
0.106113
0.105631
0.105376
0.121065
0.120859
0.120642
0.120418
0.120185
0.119945
0.119698
0.119444
0.119181
0.118911
0.118631
0.118338
0.118033
0.117719
0.117398
0.117072
0.116738
0.116394
0.116042
0.115682
0.115316
0.114941
0.114556
0.11416
0.113755
0.113341
0.112916
0.112481
0.112038
0.111583
0.111115
0.110631
0.110132
0.109616
0.109084
0.108538
0.107984
0.107442
0.106967
0.106723
0.122022
0.121823
0.121614
0.121396
0.121172
0.12094
0.120701
0.120455
0.120201
0.11994
0.119669
0.119387
0.119092
0.118788
0.118477
0.11816
0.117836
0.117502
0.11716
0.11681
0.116453
0.116088
0.115713
0.115327
0.114933
0.114528
0.114114
0.113689
0.113257
0.112813
0.112354
0.111881
0.111391
0.110885
0.110363
0.109827
0.109281
0.108746
0.108279
0.108043
0.122952
0.122759
0.122557
0.122348
0.122131
0.121907
0.121677
0.121439
0.121193
0.120941
0.12068
0.120408
0.120123
0.11983
0.119528
0.11922
0.118906
0.118582
0.11825
0.11791
0.117562
0.117208
0.116843
0.116468
0.116083
0.115689
0.115285
0.114872
0.114451
0.114016
0.113568
0.113104
0.112625
0.112129
0.111617
0.11109
0.110554
0.110026
0.109565
0.109337
0.123854
0.123668
0.123474
0.123272
0.123063
0.122847
0.122624
0.122395
0.122158
0.121915
0.121663
0.121401
0.121127
0.120844
0.120551
0.120252
0.119948
0.119635
0.119313
0.118983
0.118645
0.1183
0.117946
0.117581
0.117207
0.116823
0.11643
0.11603
0.115618
0.115193
0.114755
0.114302
0.113832
0.113347
0.112845
0.112328
0.111801
0.111281
0.110825
0.110604
0.12473
0.124551
0.124364
0.124169
0.123968
0.12376
0.123545
0.123324
0.123096
0.122861
0.122619
0.122367
0.122106
0.121831
0.121548
0.121258
0.120964
0.120661
0.120349
0.120029
0.119701
0.119366
0.119021
0.118667
0.118304
0.117931
0.117549
0.117159
0.116758
0.116344
0.115916
0.115474
0.115015
0.114539
0.114048
0.113541
0.113023
0.112511
0.11206
0.111843
0.12558
0.125408
0.125227
0.12504
0.124846
0.124646
0.12444
0.124227
0.124007
0.123781
0.123548