/*--------------------------------*- C++ -*----------------------------------*\
| =========                 |                                                 |
| \\      /  F ield         | OpenFOAM: The Open Source CFD Toolbox           |
|  \\    /   O peration     | Version:  3.0.1                                 |
|   \\  /    A nd           | Web:      www.OpenFOAM.org                      |
|    \\/     M anipulation  |                                                 |
\*---------------------------------------------------------------------------*/
FoamFile
{
    version     2.0;
    format      ascii;
    class       volScalarField;
    location    "500";
    object      p;
}
// * * * * * * * * * * * * * * * * * * * * * * * * * * * * * * * * * * * * * //

dimensions      [0 2 -2 0 0 0 0];

internalField   nonuniform List<scalar> 
58000
(
0.188422
-0.0684966
-0.289859
-0.435389
-0.525043
-0.589883
-0.63678
-0.670473
-0.69461
-0.708358
-0.715832
-0.719051
-0.717543
-0.713726
-0.709793
-0.70563
-0.700606
-0.695882
-0.691724
-0.687528
-0.682654
-0.678016
-0.673836
-0.669685
-0.664947
-0.659743
-0.654957
-0.650384
-0.645659
-0.64047
-0.63502
-0.629969
-0.625161
-0.620325
-0.615284
-0.608716
-0.598227
-0.586886
-0.578511
-0.573083
0.327344
0.228076
0.114479
-0.0100393
-0.128444
-0.231297
-0.316669
-0.392699
-0.455776
-0.506131
-0.547286
-0.578558
-0.600556
-0.616575
-0.627323
-0.633278
-0.63638
-0.637771
-0.6378
-0.63666
-0.634778
-0.632559
-0.629916
-0.626885
-0.623339
-0.619796
-0.616078
-0.612121
-0.607906
-0.603378
-0.598971
-0.594483
-0.589808
-0.584845
-0.579478
-0.57383
-0.567449
-0.561068
-0.556541
-0.554888
0.24549
0.173428
0.0952034
0.00789712
-0.0796858
-0.164155
-0.24166
-0.310667
-0.373119
-0.425127
-0.468786
-0.505314
-0.533317
-0.554281
-0.570655
-0.582606
-0.590593
-0.595945
-0.599562
-0.60172
-0.602534
-0.602338
-0.60149
-0.600155
-0.598347
-0.595997
-0.593243
-0.590216
-0.586946
-0.583478
-0.579732
-0.575733
-0.571548
-0.567158
-0.562581
-0.557789
-0.552656
-0.547356
-0.54241
-0.537796
0.23022
0.184957
0.133337
0.0720357
0.00494625
-0.0651699
-0.133998
-0.199657
-0.261589
-0.316206
-0.364945
-0.407837
-0.442952
-0.471532
-0.495452
-0.514205
-0.528178
-0.538875
-0.54714
-0.553123
-0.557097
-0.559647
-0.561172
-0.561813
-0.561591
-0.560678
-0.559239
-0.557355
-0.555039
-0.552339
-0.54935
-0.546067
-0.542511
-0.538668
-0.534571
-0.53032
-0.525929
-0.521436
-0.517023
-0.512769
0.195592
0.16266
0.126683
0.0835207
0.0345014
-0.0196877
-0.0765405
-0.133138
-0.189527
-0.241542
-0.289645
-0.333848
-0.371747
-0.403749
-0.431712
-0.454873
-0.473046
-0.487687
-0.499677
-0.509059
-0.515961
-0.521031
-0.524819
-0.527487
-0.52907
-0.529646
-0.529538
-0.528858
-0.527638
-0.525952
-0.523805
-0.521284
-0.518437
-0.515269
-0.511846
-0.508225
-0.504442
-0.500491
-0.496388
-0.492122
0.173005
0.147431
0.120173
0.0877494
0.0506924
0.00879996
-0.0370381
-0.0842695
-0.133349
-0.180519
-0.225715
-0.268769
-0.307163
-0.340767
-0.371126
-0.39723
-0.418544
-0.436385
-0.451523
-0.463858
-0.473419
-0.480894
-0.486884
-0.491526
-0.494825
-0.496888
-0.498132
-0.498677
-0.498553
-0.497819
-0.496511
-0.494767
-0.492636
-0.490125
-0.487296
-0.484217
-0.480944
-0.477455
-0.473725
-0.469789
0.152639
0.13193
0.110381
0.0850123
0.0561104
0.0232027
-0.0137479
-0.0526031
-0.0943276
-0.135758
-0.176585
-0.216718
-0.253772
-0.287153
-0.318163
-0.345704
-0.368914
-0.38891
-0.406351
-0.421021
-0.432804
-0.442352
-0.450294
-0.456742
-0.461677
-0.465172
-0.467729
-0.469474
-0.470439
-0.470684
-0.470234
-0.469281
-0.467877
-0.466038
-0.463825
-0.461298
-0.458524
-0.455483
-0.45213
-0.448511
0.135935
0.1185
0.10071
0.0800412
0.0567094
0.0302013
3.71864e-05
-0.0320175
-0.0672312
-0.103069
-0.139163
-0.175561
-0.210171
-0.242132
-0.272525
-0.300272
-0.324297
-0.345505
-0.364427
-0.380749
-0.394227
-0.40544
-0.415011
-0.42301
-0.429389
-0.434182
-0.437947
-0.44081
-0.442801
-0.443971
-0.444344
-0.444151
-0.443448
-0.442254
-0.440628
-0.438624
-0.436326
-0.433716
-0.430747
-0.42749
0.121739
0.106695
0.0915684
0.0741923
0.0547809
0.0328668
0.00779532
-0.0189421
-0.0487411
-0.0796059
-0.111194
-0.143688
-0.17535
-0.205194
-0.23414
-0.261206
-0.285193
-0.306804
-0.32646
-0.343786
-0.358429
-0.370873
-0.381707
-0.390956
-0.398548
-0.404464
-0.409295
-0.41316
-0.416082
-0.41811
-0.419251
-0.419774
-0.419735
-0.419153
-0.418087
-0.416585
-0.414743
-0.412549
-0.409956
-0.40706
0.109634
0.0963947
0.0832298
0.0682565
0.0516952
0.0331441
0.0119093
-0.0107212
-0.0361543
-0.0628075
-0.090387
-0.119185
-0.147804
-0.175236
-0.202278
-0.228083
-0.251414
-0.27281
-0.292595
-0.310365
-0.325687
-0.338941
-0.35067
-0.360852
-0.369402
-0.37624
-0.381968
-0.386692
-0.390426
-0.393214
-0.395049
-0.396223
-0.396793
-0.396777
-0.39623
-0.395197
-0.393782
-0.391981
-0.38975
-0.387205
0.099208
0.0873808
0.0757179
0.0625642
0.0481434
0.032117
0.0138123
-0.00563619
-0.0275803
-0.0507469
-0.074894
-0.100379
-0.126094
-0.151078
-0.176033
-0.200256
-0.222538
-0.243287
-0.262747
-0.280511
-0.296098
-0.30979
-0.322077
-0.332895
-0.342147
-0.349698
-0.356143
-0.361573
-0.365988
-0.369428
-0.371871
-0.373622
-0.374735
-0.375227
-0.375152
-0.374547
-0.373527
-0.372092
-0.370198
-0.367988
0.0901589
0.079468
0.0689904
0.0572583
0.044495
0.0304148
0.0143899
-0.00256791
-0.0217216
-0.0420261
-0.0632838
-0.0858833
-0.108954
-0.131609
-0.154476
-0.176986
-0.197997
-0.21782
-0.236639
-0.254063
-0.269586
-0.283408
-0.295962
-0.30715
-0.316869
-0.324933
-0.331918
-0.337896
-0.342859
-0.34684
-0.349797
-0.352044
-0.353628
-0.354565
-0.354908
-0.354688
-0.354024
-0.352921
-0.351338
-0.349438
0.0822493
0.0724946
0.0629777
0.0523866
0.0409407
0.0283977
0.0141818
-0.000798083
-0.0177035
-0.035658
-0.0544984
-0.0746232
-0.0953487
-0.11587
-0.136749
-0.157537
-0.177181
-0.195923
-0.213903
-0.230755
-0.245968
-0.259675
-0.272258
-0.283592
-0.293572
-0.301968
-0.309328
-0.315709
-0.321089
-0.325498
-0.328875
-0.331533
-0.333515
-0.334834
-0.335538
-0.335656
-0.335308
-0.334501
-0.333197
-0.331581
0.0752924
0.0663245
0.0576037
0.04795
0.0375757
0.0262737
0.013521
0.000138729
-0.0149339
-0.0309487
-0.0477677
-0.0657831
-0.084454
-0.103058
-0.122102
-0.141239
-0.159511
-0.177106
-0.194135
-0.210264
-0.224997
-0.238407
-0.250833
-0.26213
-0.272195
-0.280768
-0.28836
-0.295009
-0.300687
-0.305418
-0.309123
-0.312111
-0.314418
-0.316054
-0.317065
-0.317473
-0.317397
-0.316849
-0.315794
-0.31443
0.0691396
0.0608444
0.0527958
0.0439274
0.0344426
0.024163
0.0126156
0.000544697
-0.0130143
-0.0274141
-0.0425361
-0.0587548
-0.0756375
-0.0925404
-0.109923
-0.127518
-0.144462
-0.160907
-0.176939
-0.192261
-0.206398
-0.219385
-0.231516
-0.242635
-0.252643
-0.261259
-0.268958
-0.275762
-0.281631
-0.286587
-0.290535
-0.293775
-0.296338
-0.29823
-0.299494
-0.300144
-0.300301
-0.299975
-0.299134
-0.297993
0.0636712
0.0559593
0.0484877
0.0402885
0.0315549
0.0221324
0.0115939
0.000616136
-0.011677
-0.0247186
-0.038406
-0.0530904
-0.0684202
-0.0838234
-0.0997171
-0.115895
-0.131584
-0.146911
-0.161945
-0.176421
-0.189897
-0.202376
-0.214114
-0.22495
-0.234792
-0.243346
-0.251049
-0.257907
-0.263875
-0.268969
-0.273086
-0.276508
-0.279263
-0.281353
-0.282817
-0.283666
-0.284014
-0.283874
-0.283216
-0.282268
0.058789
0.0515889
0.0446197
0.0369993
0.0289102
0.0202176
0.0105363
0.000482348
-0.0107391
-0.0226268
-0.0350909
-0.0484574
-0.0624372
-0.0765211
-0.0910862
-0.105975
-0.120497
-0.13476
-0.148823
-0.162451
-0.175234
-0.187154
-0.198435
-0.208914
-0.21851
-0.226918
-0.234538
-0.24137
-0.247357
-0.252516
-0.256733
-0.260276
-0.263166
-0.265401
-0.267018
-0.268023
-0.268524
-0.268537
-0.268033
-0.267248
0.0544124
0.0476661
0.0411395
0.0340263
0.0264976
0.0184352
0.00949191
0.000229223
-0.0100743
-0.0209717
-0.0323837
-0.0446107
-0.0574127
-0.0703346
-0.0837172
-0.0974403
-0.110889
-0.124155
-0.13729
-0.150088
-0.162172
-0.173508
-0.184293
-0.194366
-0.203655
-0.211853
-0.219326
-0.226064
-0.232007
-0.237168
-0.241428
-0.245036
-0.248009
-0.250343
-0.252071
-0.253193
-0.253814
-0.253949
-0.253569
-0.252922
0.0504749
0.0441346
0.0380019
0.031338
0.0243022
0.0167908
0.00849043
-8.65737e-05
-0.00959501
-0.0196345
-0.030134
-0.0413692
-0.0531381
-0.0650335
-0.0773631
-0.0900356
-0.102502
-0.114842
-0.127103
-0.139104
-0.150497
-0.161242
-0.171512
-0.181149
-0.19009
-0.198032
-0.205307
-0.2119
-0.217748
-0.222859
-0.227112
-0.230739
-0.233752
-0.236144
-0.237944
-0.239149
-0.23986
-0.240088
-0.239808
-0.239272
0.046921
0.0409469
0.0351678
0.0289054
0.0223079
0.0152835
0.00754916
-0.000427286
-0.00924036
-0.0185295
-0.0282311
-0.0385969
-0.049455
-0.06044
-0.0718301
-0.0835558
-0.0951266
-0.106614
-0.118057
-0.129299
-0.140024
-0.150185
-0.159933
-0.16912
-0.177686
-0.18534
-0.192381
-0.198789
-0.2045
-0.20952
-0.213726
-0.217333
-0.220348
-0.222763
-0.224602
-0.225861
-0.226633
-0.22693
-0.226727
-0.226281
0.0437035
0.0380622
0.0326033
0.0267029
0.0204984
0.0139086
0.0066772
-0.000768307
-0.00896768
-0.0175951
-0.0265934
-0.0361919
-0.0462428
-0.0564173
-0.0669669
-0.0778383
-0.0885936
-0.0992961
-0.10998
-0.120507
-0.130592
-0.140183
-0.149415
-0.158146
-0.166323
-0.173668
-0.18045
-0.186645
-0.192187
-0.197083
-0.201209
-0.204764
-0.207751
-0.210158
-0.212009
-0.213296
-0.214106
-0.214449
-0.214303
-0.213926
0.0407826
0.0354457
0.0302788
0.0247071
0.0188577
0.0126586
0.00587794
-0.00109398
-0.00874739
-0.0167867
-0.0251605
-0.0340773
-0.0434086
-0.0528586
-0.062654
-0.0727539
-0.082766
-0.0927472
-0.102727
-0.112585
-0.122061
-0.131103
-0.139831
-0.148109
-0.155893
-0.162916
-0.169422
-0.175383
-0.180736
-0.185482
-0.189503
-0.192979
-0.195911
-0.198286
-0.200126
-0.201419
-0.202246
-0.202616
-0.20251
-0.202185
0.0381242
0.0330672
0.0281683
0.0228969
0.0173706
0.0115254
0.00515158
-0.00139468
-0.00855867
-0.0160716
-0.0238869
-0.0321939
-0.0408804
-0.0496792
-0.0587954
-0.0681971
-0.0775313
-0.0868495
-0.096178
-0.105411
-0.114312
-0.122829
-0.13107
-0.138906
-0.146298
-0.152994
-0.159214
-0.164929
-0.170074
-0.174654
-0.178549
-0.181927
-0.184783
-0.187107
-0.188915
-0.190196
-0.191022
-0.191404
-0.191322
-0.191034
0.0356991
0.0309006
0.0262489
0.0212536
0.0160232
0.0105007
0.00449643
-0.00166435
-0.00838645
-0.0154252
-0.0227378
-0.0304964
-0.0386018
-0.0468127
-0.0553149
-0.0640825
-0.0727979
-0.0815071
-0.0902336
-0.098884
-0.107244
-0.115263
-0.123036
-0.130444
-0.137451
-0.14382
-0.14975
-0.15521
-0.160139
-0.164538
-0.168293
-0.171556
-0.174321
-0.176577
-0.178338
-0.17959
-0.180402
-0.180782
-0.180712
-0.180449
0.0334822
0.0289237
0.024501
0.0197609
0.014803
0.00957646
0.00390974
-0.00189994
-0.00822051
-0.0148293
-0.0216872
-0.02895
-0.0365295
-0.0442076
-0.0521523
-0.0603426
-0.0684918
-0.0766411
-0.0848113
-0.0929197
-0.100772
-0.10832
-0.115647
-0.122642
-0.129273
-0.13532
-0.14096
-0.146162
-0.150868
-0.155079
-0.158682
-0.161819
-0.164482
-0.166656
-0.168357
-0.169569
-0.170355
-0.170722
-0.170654
-0.170404
0.0314516
0.0271166
0.0229072
0.0184039
0.0136982
0.00874448
0.00338774
-0.00210049
-0.00805459
-0.0142716
-0.0207157
-0.0275281
-0.0346295
-0.0418226
-0.0492592
-0.0569221
-0.0645521
-0.0721859
-0.0798416
-0.0874461
-0.0948233
-0.101926
-0.108828
-0.115428
-0.121697
-0.127428
-0.132782
-0.137727
-0.142208
-0.146224
-0.14967
-0.152673
-0.155223
-0.157307
-0.158938
-0.1601
-0.160851
-0.161196
-0.161121
-0.160875
0.0295883
0.0254622
0.0214521
0.0171694
0.0126978
0.00799678
0.00292604
-0.00226635
-0.0078843
-0.0137427
-0.0198087
-0.0262098
-0.0328749
-0.0396245
-0.0465963
-0.0537759
-0.0609285
-0.0680869
-0.0752668
-0.0824025
-0.0893345
-0.0960176
-0.102519
-0.108742
-0.114662
-0.120086
-0.125159
-0.12985
-0.134106
-0.137927
-0.141211
-0.144074
-0.146506
-0.148493
-0.150046
-0.151151
-0.151859
-0.152176
-0.152088
-0.151839
0.0278756
0.0239455
0.0201222
0.0160456
0.0117923
0.00732608
0.00252034
-0.00239857
-0.00770693
-0.0132355
-0.0189542
-0.0249784
-0.0312435
-0.0375865
-0.0441315
-0.0508668
-0.0575795
-0.0642989
-0.0710378
-0.0777374
-0.084253
-0.0905416
-0.0966629
-0.102528
-0.108114
-0.113242
-0.118042
-0.122484
-0.126518
-0.130144
-0.133264
-0.135984
-0.138294
-0.14018
-0.141651
-0.142693
-0.143352
-0.143636
-0.143529
-0.143271
0.0262987
0.0225529
0.0189053
0.015022
0.0109728
0.00672578
0.00216646
-0.00249873
-0.00752076
-0.0127448
-0.0181433
-0.0238204
-0.0297174
-0.0356864
-0.0418389
-0.0481647
-0.0544708
-0.0607834
-0.0671132
-0.073407
-0.079533
-0.0854511
-0.0912139
-0.0967388
-0.102006
-0.106849
-0.111386
-0.115586
-0.119403
-0.122835
-0.125791
-0.128368
-0.130554
-0.132335
-0.133721
-0.134696
-0.135304
-0.135549
-0.13542
-0.135149
0.0248448
0.0212726
0.0177906
0.0140889
0.0102313
0.0061895
0.00186011
-0.00256879
-0.00732497
-0.0122667
-0.017369
-0.0227256
-0.0282828
-0.0339063
-0.0396966
-0.0456441
-0.0515736
-0.0575086
-0.0634583
-0.069374
-0.0751359
-0.0807058
-0.0861306
-0.0913339
-0.0962976
-0.100868
-0.105151
-0.109117
-0.112722
-0.115964
-0.118759
-0.121193
-0.123254
-0.12493
-0.126227
-0.127133
-0.127687
-0.127892
-0.127738
-0.12745
0.0235022
0.020094
0.0167684
0.0132379
0.00956061
0.00571159
0.00159722
-0.00261097
-0.0071195
-0.0117988
-0.0166261
-0.0216856
-0.0269283
-0.0322316
-0.0376863
-0.0432835
-0.0488638
-0.0544481
-0.0600441
-0.0656072
-0.0710282
-0.0762711
-0.0813777
-0.0862767
-0.0909523
-0.0952619
-0.0993008
-0.103041
-0.106441
-0.109499
-0.112135
-0.114427
-0.116365
-0.117935
-0.119145
-0.11998
-0.120478
-0.120641
-0.120459
-0.120153
0.0222607
0.0190077
0.0158301
0.0124614
0.00895433
0.00528671
0.00137401
-0.00262734
-0.00690455
-0.0113392
-0.0159103
-0.0206937
-0.0256443
-0.0306503
-0.0357934
-0.0410652
-0.046321
-0.0515792
-0.0568456
-0.0620796
-0.0671812
-0.0721172
-0.0769238
-0.0815358
-0.0859379
-0.0899989
-0.0938044
-0.0973282
-0.10053
-0.103409
-0.10589
-0.108044
-0.109859
-0.111325
-0.112447
-0.113213
-0.113654
-0.113774
-0.113564
-0.113237
0.0211113
0.0180053
0.0149683
0.0117526
0.00840651
0.00490998
0.0011868
-0.00262023
-0.00668082
-0.0108868
-0.0152186
-0.0197447
-0.0244231
-0.0291523
-0.0340056
-0.0389748
-0.0439283
-0.0488824
-0.0538413
-0.0587676
-0.0635703
-0.0682176
-0.0727421
-0.0770828
-0.0812259
-0.0850505
-0.0886335
-0.0919493
-0.0949611
-0.0976666
-0.0999972
-0.102016
-0.103713
-0.105077
-0.106112
-0.106808
-0.107192
-0.107269
-0.107031
-0.106682
0.0200457
0.0170794
0.014176
0.0111055
0.00791168
0.00457683
0.00103232
-0.00259172
-0.00644909
-0.0104407
-0.0145485
-0.018834
-0.0232585
-0.0277293
-0.0323122
-0.0369994
-0.041671
-0.0463411
-0.0510128
-0.0556514
-0.0601736
-0.0645499
-0.0688086
-0.0728934
-0.0767915
-0.0803914
-0.083762
-0.0868797
-0.0897088
-0.0922481
-0.0944334
-0.0963219
-0.0979036
-0.0991672
-0.100118
-0.100744
-0.101073
-0.101108
-0.100841
-0.10047
0.0190569
0.0162233
0.013447
0.0105144
0.00746496
0.00428328
0.00090756
-0.00254383
-0.00620999
-0.0100002
-0.013898
-0.0179583
-0.0221452
-0.0263742
-0.0307044
-0.0351282
-0.0395366
-0.0439412
-0.0483441
-0.0527133
-0.0569727
-0.061094
-0.0651025
-0.0689459
-0.0726122
-0.0759988
-0.0791677
-0.0820958
-0.0847509
-0.0871307
-0.0891759
-0.0909385
-0.0924085
-0.0935753
-0.0944435
-0.0950027
-0.0952774
-0.0952706
-0.0949755
-0.0945816
0.0181381
0.015431
0.0127758
0.00997418
0.007062
0.00402568
0.000809612
-0.00247856
-0.00596457
-0.00956539
-0.0132656
-0.0171145
-0.0210787
-0.025081
-0.0291747
-0.0333526
-0.0375144
-0.0416704
-0.0458217
-0.0499385
-0.0539507
-0.0578324
-0.0616053
-0.0652211
-0.0686682
-0.0718526
-0.0748295
-0.0775779
-0.0800665
-0.0822938
-0.0842049
-0.0858462
-0.0872086
-0.0882821
-0.0890705
-0.0895647
-0.0897867
-0.0897395
-0.0894168
-0.0890006
0.0172837
0.014697
0.0121573
0.00948044
0.00669888
0.00380065
0.000735732
-0.00239788
-0.0057138
-0.00913594
-0.01265
-0.0163001
-0.0200552
-0.0238449
-0.0277173
-0.0316645
-0.0355952
-0.0395183
-0.0434335
-0.0473133
-0.0510937
-0.0547498
-0.0583007
-0.0617018
-0.0649419
-0.0679347
-0.0707298
-0.0733067
-0.0756372
-0.077719
-0.0795014
-0.0810267
-0.082286
-0.0832695
-0.0839814
-0.0844128
-0.084584
-0.0844978
-0.0841487
-0.0837107
0.0164883
0.0140165
0.0115871
0.00902912
0.00637197
0.00360505
0.000683557
-0.00230345
-0.00545849
-0.00871186
-0.0120504
-0.0155132
-0.0190717
-0.0226617
-0.0263262
-0.0300572
-0.0337712
-0.0374753
-0.0411691
-0.0448265
-0.0483886
-0.0518324
-0.0551744
-0.0583728
-0.0614175
-0.0642289
-0.0668512
-0.069266
-0.0714458
-0.073389
-0.0750489
-0.0764632
-0.0776235
-0.0785213
-0.0791597
-0.0795309
-0.0796534
-0.07953
-0.0791556
-0.0786964
0.0157471
0.013385
0.0110611
0.00861652
0.00607793
0.00343612
0.000650869
-0.00219684
-0.00519949
-0.00829332
-0.0114659
-0.0147523
-0.0181258
-0.021528
-0.0249971
-0.0285249
-0.0320351
-0.0355338
-0.0390192
-0.0424674
-0.0458245
-0.0490683
-0.0522132
-0.0552206
-0.0580807
-0.0607204
-0.0631795
-0.0654398
-0.067477
-0.0692886
-0.0708314
-0.0721399
-0.0732063
-0.0740218
-0.0745902
-0.0749039
-0.07498
-0.0748211
-0.0744228
-0.0739433
0.0150559
0.0127988
0.0105757
0.00823932
0.00581386
0.00329131
0.000635657
-0.00207955
-0.00493775
-0.00788046
-0.0108962
-0.0140161
-0.0172154
-0.0204407
-0.0237256
-0.0270624
-0.030381
-0.0336861
-0.0369758
-0.0402274
-0.0433911
-0.0464466
-0.0494058
-0.052233
-0.0549187
-0.0573961
-0.0597003
-0.061815
-0.0637166
-0.0654031
-0.066835
-0.0680429
-0.0690193
-0.0697571
-0.0702587
-0.0705178
-0.0705498
-0.0703574
-0.0699366
-0.0694378
0.0144107
0.012254
0.0101275
0.00789455
0.00557709
0.00316828
0.000635947
-0.00195321
-0.00467426
-0.00747383
-0.0103411
-0.0133039
-0.0163388
-0.0193969
-0.0225085
-0.0256653
-0.0288033
-0.0319264
-0.0350316
-0.0380979
-0.0410798
-0.0439575
-0.0467415
-0.0493988
-0.05192
-0.0542439
-0.056402
-0.0583783
-0.0601518
-0.0617199
-0.0630462
-0.0641585
-0.0650502
-0.0657135
-0.0661519
-0.0663593
-0.0663496
-0.0661259
-0.0656841
-0.0651671
0.013808
0.0117473
0.00971336
0.00757939
0.00536516
0.00306489
0.000649911
-0.00181926
-0.0044101
-0.00707379
-0.00980055
-0.0126146
-0.0154941
-0.0183945
-0.0213422
-0.0243294
-0.0272972
-0.0302485
-0.0331802
-0.0360721
-0.0388822
-0.0415924
-0.0442112
-0.0467081
-0.0490741
-0.051253
-0.0532727
-0.0551187
-0.0567706
-0.0582265
-0.059453
-0.0604749
-0.0612856
-0.0618791
-0.0622577
-0.0624161
-0.0623674
-0.0621142
-0.061653
-0.0611192
0.0132445
0.0112757
0.00933053
0.00729123
0.00517571
0.00297912
0.000675911
-0.00167898
-0.00414604
-0.0066809
-0.00927418
-0.0119474
-0.0146799
-0.017431
-0.0202242
-0.0230512
-0.0258584
-0.0286477
-0.0314155
-0.034143
-0.0367913
-0.0393434
-0.0418064
-0.044152
-0.0463716
-0.0484134
-0.0503026
-0.0520248
-0.0535622
-0.0549121
-0.056044
-0.0569803
-0.0577151
-0.0582421
-0.0585642
-0.0586768
-0.0585915
-0.058311
-0.0578322
-0.0572827
0.0127171
0.0108365
0.00897636
0.00702769
0.00500662
0.00290909
0.000712433
-0.00153343
-0.00388295
-0.00629527
-0.0087619
-0.0113015
-0.0138949
-0.0165048
-0.0191516
-0.0218275
-0.024483
-0.0271192
-0.0297325
-0.032305
-0.0348006
-0.0372035
-0.0395195
-0.0417224
-0.0438037
-0.0457162
-0.0474818
-0.0490878
-0.0505165
-0.0517662
-0.0528089
-0.0536644
-0.0543271
-0.054792
-0.0550611
-0.0551306
-0.0550112
-0.0547055
-0.0542107
-0.053647
0.0122232
0.010427
0.00864849
0.00678662
0.00485593
0.00285313
0.000758202
-0.0013838
-0.00362131
-0.00591725
-0.00826347
-0.0106764
-0.013138
-0.0156139
-0.0181224
-0.0206553
-0.0231674
-0.0256592
-0.0281265
-0.0305525
-0.0329042
-0.0351663
-0.0373436
-0.0394118
-0.0413626
-0.0431528
-0.044802
-0.0462977
-0.0476244
-0.0487797
-0.0497379
-0.0505172
-0.0511126
-0.0515186
-0.0517382
-0.0517674
-0.0516164
-0.0512877
-0.0507785
-0.0502023
0.0117603
0.0100449
0.00834477
0.00656604
0.00472192
0.00280979
0.000811837
-0.00123085
-0.00336183
-0.00554697
-0.00777871
-0.0100713
-0.0124078
-0.0147569
-0.0171343
-0.019532
-0.0219086
-0.0242637
-0.0265931
-0.028881
-0.0310966
-0.0332258
-0.0352723
-0.0372133
-0.039041
-0.0407158
-0.0422549
-0.0436471
-0.0448772
-0.0459434
-0.0468223
-0.04753
-0.0480615
-0.0484129
-0.0485859
-0.0485779
-0.0483977
-0.048048
-0.0475263
-0.046939
0.0113262
0.00968824
0.00806324
0.00636417
0.00460298
0.00277757
0.000872365
-0.00107559
-0.00310498
-0.00518465
-0.00730745
-0.00948576
-0.0117036
-0.0139323
-0.0161855
-0.0184553
-0.0207034
-0.0229295
-0.0251286
-0.0272859
-0.0293731
-0.0313767
-0.0332996
-0.0351207
-0.0368322
-0.0383982
-0.0398336
-0.0411276
-0.0422671
-0.0432495
-0.0440535
-0.0446937
-0.045166
-0.0454658
-0.0455957
-0.045553
-0.045346
-0.0449776
-0.0444451
-0.0438483
0.0109186
0.00935497
0.00780211
0.00617939
0.00449763
0.00275533
0.00093864
-0.000918706
-0.00285125
-0.00483046
-0.00684957
-0.00891923
-0.0110245
-0.0131389
-0.0152743
-0.0174229
-0.0195496
-0.0216532
-0.0237293
-0.0257633
-0.027729
-0.0296141
-0.0314203
-0.0331282
-0.0347302
-0.0361934
-0.0375308
-0.038733
-0.0397867
-0.0406902
-0.0414241
-0.0420011
-0.0424173
-0.0426694
-0.0427591
-0.0426845
-0.0424532
-0.0420678
-0.0415263
-0.0409218
0.0105358
0.00904336
0.00755972
0.0060102
0.00440464
0.00274183
0.00100984
-0.000760931
-0.00260111
-0.00448457
-0.00640493
-0.00837127
-0.0103695
-0.0123753
-0.0143991
-0.0164328
-0.0184444
-0.0204324
-0.0223919
-0.0243093
-0.0261605
-0.0279334
-0.0296295
-0.0312305
-0.0327293
-0.0340955
-0.0353409
-0.0364559
-0.0374294
-0.0382588
-0.0389265
-0.0394442
-0.0398085
-0.0400157
-0.0400683
-0.0399644
-0.039711
-0.039311
-0.038762
-0.0381515
0.0101759
0.00875177
0.0073346
0.00585531
0.00432268
0.00273613
0.00108504
-0.000602913
-0.00235494
-0.00414713
-0.00597339
-0.00784143
-0.00973793
-0.0116407
-0.0135583
-0.0154833
-0.0173859
-0.0192642
-0.0211135
-0.0229207
-0.0246634
-0.0263305
-0.0279226
-0.0294228
-0.0308241
-0.0320989
-0.0332573
-0.0342909
-0.0351884
-0.0359482
-0.0365542
-0.0370165
-0.0373318
-0.0374978
-0.0375161
-0.0373853
-0.0371123
-0.0366992
-0.0361447
-0.0355298
0.00983743
0.00847873
0.00712538
0.00571336
0.00425077
0.00273718
0.0011635
-0.000445238
-0.00211314
-0.00381827
-0.00555484
-0.00732931
-0.00912913
-0.0109338
-0.0127509
-0.0145726
-0.0163718
-0.0181464
-0.0198912
-0.0215942
-0.0232345
-0.0248015
-0.0262954
-0.0277004
-0.0290099
-0.0301985
-0.0312751
-0.0322315
-0.0330582
-0.0337527
-0.0343005
-0.0347109
-0.0349813
-0.0351086
-0.0350954
-0.0349403
-0.0346494
-0.0342257
-0.0336669
-0.0330494
0.00951881
0.00822285
0.00693075
0.00558331
0.00418777
0.00274414
0.00124451
-0.000288449
-0.00187602
-0.00349809
-0.00514915
-0.00683451
-0.00854236
-0.0102539
-0.0119753
-0.0136992
-0.0154004
-0.0170765
-0.0187227
-0.020327
-0.0218703
-0.0233429
-0.024744
-0.0260592
-0.027282
-0.0283895
-0.0293889
-0.0302733
-0.031033
-0.0316662
-0.0321598
-0.0325218
-0.0327498
-0.0328419
-0.0327996
-0.0326224
-0.032316
-0.0318828
-0.0313218
-0.0307032
0.00921868
0.00798287
0.00674958
0.00546402
0.00413283
0.00275622
0.00132742
-0.00013303
-0.00164387
-0.00318669
-0.00475618
-0.00635669
-0.00797707
-0.00959994
-0.0112306
-0.0128615
-0.0144698
-0.0160528
-0.0176052
-0.0191162
-0.020568
-0.0219511
-0.0232647
-0.0244952
-0.0256364
-0.0266672
-0.0275944
-0.0284105
-0.0291077
-0.0296835
-0.0301261
-0.030443
-0.0306322
-0.0306912
-0.0306226
-0.0304255
-0.0301052
-0.0296649
-0.0291024
-0.0284845
0.00893578
0.00775762
0.0065808
0.0053546
0.00408506
0.00277269
0.00141166
2.05868e-05
-0.00141697
-0.00288413
-0.00437582
-0.00589548
-0.00743258
-0.00897123
-0.0105155
-0.0120583
-0.0135785
-0.0150729
-0.0165367
-0.0179595
-0.0193246
-0.0206232
-0.0218541
-0.0230047
-0.024069
-0.0250277
-0.0258865
-0.0266391
-0.0272771
-0.0277991
-0.0281944
-0.0284694
-0.028622
-0.0286512
-0.0285582
-0.0283433
-0.0280113
-0.0275648
-0.027003
-0.0263868
0.00866893
0.00754608
0.00642341
0.00525414
0.00404375
0.0027929
0.0014967
0.000172013
-0.00119555
-0.00259047
-0.0040079
-0.00545054
-0.00690841
-0.00836679
-0.00982908
-0.0112882
-0.0127247
-0.0141354
-0.0155151
-0.0168543
-0.0181375
-0.0193563
-0.0205091
-0.0215843
-0.0225761
-0.0234669
-0.0242616
-0.0249539
-0.025537
-0.0260087
-0.0263595
-0.0265953
-0.0267148
-0.0267159
-0.0266011
-0.0263702
-0.0260279
-0.0255773
-0.0250166
-0.0244038
0.00841709
0.00734718
0.00627654
0.00516185
0.00400811
0.00281625
0.00158207
0.000320917
-0.000979773
-0.00230572
-0.0036523
-0.00502152
-0.00640395
-0.00778609
-0.00917031
-0.01055
-0.0119071
-0.0132382
-0.0145385
-0.0157986
-0.0170042
-0.0181476
-0.0192267
-0.0202308
-0.0211542
-0.0219811
-0.0227153
-0.0233515
-0.0238826
-0.0243073
-0.0246168
-0.0248165
-0.0249046
-0.0248805
-0.0247457
-0.0245006
-0.0241498
-0.0236958
-0.0231381
-0.0225295
0.00817919
0.00716007
0.00613931
0.00507692
0.00397756
0.00284218
0.00166735
0.000466994
-0.000769804
-0.0020299
-0.00330887
-0.00460813
-0.00591877
-0.00722819
-0.0085384
-0.00984264
-0.0111243
-0.01238
-0.0136049
-0.0147901
-0.0159226
-0.0169945
-0.018004
-0.018941
-0.0198001
-0.0205667
-0.0212444
-0.0218274
-0.0223102
-0.022691
-0.0229618
-0.0231277
-0.0231875
-0.0231398
-0.022987
-0.0227294
-0.0223712
-0.0219156
-0.0213611
-0.020758
0.00795433
0.00698383
0.00601094
0.00499874
0.00395141
0.00287018
0.00175215
0.000609964
-0.000565787
-0.00176302
-0.00297748
-0.00421005
-0.00545228
-0.00669265
-0.0079323
-0.00916492
-0.010375
-0.0115592
-0.0127127
-0.0138271
-0.0148901
-0.0158946
-0.0168384
-0.0177122
-0.0185107
-0.0192206
-0.0198448
-0.0203785
-0.0208157
-0.0211553
-0.0213904
-0.0215251
-0.0215581
-0.0214894
-0.0213202
-0.0210516
-0.0206876
-0.0202307
-0.0196809
-0.0190837
0.00774161
0.00681772
0.00589072
0.00492657
0.0039292
0.00289979
0.00183609
0.000749579
-0.000367845
-0.00150506
-0.00265795
-0.00382697
-0.0050041
-0.00617861
-0.00735132
-0.00851582
-0.00965798
-0.0107744
-0.0118602
-0.0129075
-0.013905
-0.0148457
-0.0157275
-0.0165415
-0.0172829
-0.0179395
-0.0185137
-0.0190006
-0.0193956
-0.0196969
-0.0198985
-0.020004
-0.020013
-0.0199244
-0.0197407
-0.0194624
-0.0190933
-0.0186368
-0.0180916
-0.0175012
0.0075403
0.00666096
0.005778
0.00485995
0.00391033
0.00293059
0.00191887
0.000885624
-0.000176077
-0.00125598
-0.00235014
-0.00345857
-0.00457371
-0.00568564
-0.00679449
-0.00789439
-0.00897209
-0.0100241
-0.0110459
-0.0120298
-0.0129651
-0.0138456
-0.0146688
-0.0154266
-0.0161142
-0.0167207
-0.0172476
-0.0176912
-0.0180462
-0.0183118
-0.0184823
-0.018561
-0.0185472
-0.0184411
-0.018244
-0.0179573
-0.0175845
-0.0171284
-0.016589
-0.0160053
0.00734954
0.00651295
0.00567217
0.0047982
0.00389443
0.00296221
0.0020002
0.00101791
9.43929e-06
-0.00101575
-0.00205386
-0.00310456
-0.00416068
-0.0052129
-0.00626123
-0.00729968
-0.00831617
-0.00930723
-0.0102682
-0.0111921
-0.0120688
-0.0128923
-0.0136602
-0.0143649
-0.0150019
-0.0155612
-0.016044
-0.0164464
-0.0167645
-0.0169967
-0.0171381
-0.0171919
-0.0171577
-0.0170351
-0.0168262
-0.0165321
-0.0161562
-0.0157016
-0.0151676
-0.0145913
0.00716872
0.00637297
0.00557261
0.00474096
0.00388099
0.0029943
0.00207983
0.00114626
0.000188641
-0.000784317
-0.00176895
-0.00276461
-0.0037645
-0.00476004
-0.00575064
-0.00673083
-0.00768927
-0.0086224
-0.00952595
-0.0103929
-0.0112141
-0.0119838
-0.0126995
-0.0133542
-0.0139436
-0.0144584
-0.0148997
-0.015264
-0.0155471
-0.0157481
-0.0158628
-0.0158936
-0.0158402
-0.0157029
-0.0154833
-0.0151827
-0.0148046
-0.0143515
-0.0138237
-0.0132544
0.00699709
0.00624046
0.00547885
0.00468762
0.00386969
0.00302653
0.00215751
0.00127054
0.000361479
-0.000561622
-0.00149523
-0.00243845
-0.00338481
-0.0043263
-0.0052622
-0.00618698
-0.00709029
-0.00796863
-0.00881757
-0.00963072
-0.0103995
-0.0111183
-0.0117848
-0.0123924
-0.012937
-0.01341
-0.0138123
-0.0141405
-0.0143913
-0.0145634
-0.0146529
-0.0146623
-0.0145917
-0.0144407
-0.0142116
-0.0139054
-0.0135255
-0.0130747
-0.0125525
-0.0119904
0.0068341
0.00611485
0.00539032
0.00463787
0.00386008
0.00305861
0.00223305
0.00139062
0.00052792
-0.000347606
-0.00123254
-0.00212576
-0.00302116
-0.00391132
-0.00479507
-0.00566733
-0.00651832
-0.00734456
-0.00814195
-0.0089042
-0.00962327
-0.0102942
-0.0109142
-0.0114774
-0.0119797
-0.0124135
-0.0127792
-0.013074
-0.0132942
-0.0134393
-0.0135056
-0.0134954
-0.0134084
-0.0132454
-0.0130076
-0.0126966
-0.0123156
-0.0118668
-0.0113508
-0.0107954
0.0066791
0.00599562
0.00530662
0.0045912
0.0038519
0.00309028
0.00230625
0.00150639
0.000687948
-0.000142185
-0.000980702
-0.00182629
-0.0026732
-0.00351441
-0.00434875
-0.00517104
-0.00597239
-0.00674937
-0.00749777
-0.00821181
-0.00888411
-0.0095096
-0.0100859
-0.0106072
-0.0110698
-0.0114666
-0.0117981
-0.0120613
-0.0122534
-0.0123733
-0.0124179
-0.0123894
-0.012288
-0.0121135
-0.0118681
-0.011553
-0.011171
-0.0107251
-0.0102145
-0.00966598
0.0065316
0.00588229
0.00522726
0.00454734
0.00384478
0.0031213
0.00237694
0.00161776
0.000841562
5.47316e-05
-0.000739529
-0.00153976
-0.00234048
-0.00313524
-0.00392247
-0.0046974
-0.00545167
-0.00618182
-0.00688399
-0.0075525
-0.00818039
-0.00876311
-0.00929808
-0.00977996
-0.0102052
-0.0105674
-0.0108667
-0.0111006
-0.0112661
-0.0113625
-0.0113873
-0.011342
-0.0112268
-0.0110423
-0.01079
-0.0104713
-0.0100891
-0.00964555
-0.00914099
-0.00859879
0.00639105
0.0057744
0.00515189
0.00450584
0.00383849
0.00315144
0.00244498
0.00172466
0.000988765
0.000243232
-0.000508847
-0.00126588
-0.00202269
-0.00277317
-0.00351577
-0.00424569
-0.00495526
-0.00564116
-0.00629941
-0.00692483
-0.00751093
-0.00805321
-0.00854922
-0.00899401
-0.00938415
-0.00971381
-0.00998305
-0.0101892
-0.0103302
-0.0104049
-0.010411
-0.0103502
-0.0102228
-0.0100289
-0.00977051
-0.00944885
-0.00906645
-0.00862599
-0.00812676
-0.00759099
0.006257
0.00567153
0.0050801
0.00446649
0.00383272
0.00318051
0.00251024
0.00182701
0.00112957
0.00042341
-0.000288472
-0.00100438
-0.0017194
-0.00242787
-0.00312793
-0.00381521
-0.00448242
-0.00512627
-0.00574311
-0.00632781
-0.00687427
-0.00737847
-0.00783778
-0.00824765
-0.00860481
-0.00890396
-0.00914489
-0.00932555
-0.00944335
-0.00949782
-0.00948684
-0.00941182
-0.00927288
-0.00907085
-0.00880698
-0.00848283
-0.00810086
-0.00766311
-0.00716969
-0.00664004
0.00612897
0.00557328
0.00501157
0.00442891
0.0038273
0.00320833
0.0025726
0.00192478
0.001264
0.000595367
-7.82225e-05
-0.00075499
-0.00143028
-0.00209873
-0.00275855
-0.00340529
-0.00403233
-0.00463646
-0.00521397