/*--------------------------------*- C++ -*----------------------------------*\
| =========                 |                                                 |
| \\      /  F ield         | OpenFOAM: The Open Source CFD Toolbox           |
|  \\    /   O peration     | Version:  3.0.1                                 |
|   \\  /    A nd           | Web:      www.OpenFOAM.org                      |
|    \\/     M anipulation  |                                                 |
\*---------------------------------------------------------------------------*/
FoamFile
{
    version     2.0;
    format      ascii;
    class       surfaceScalarField;
    location    "500";
    object      phi;
}
// * * * * * * * * * * * * * * * * * * * * * * * * * * * * * * * * * * * * * //

dimensions      [0 3 -1 0 0 0 0];

internalField   nonuniform List<scalar> 
115520
(
0.011393
-0.00211182
-0.00928118
0.0127804
-0.0013873
0.0132839
-0.000503522
0.0132755
8.4304e-06
0.0129741
0.000301382
0.0125293
0.00044487
0.012101
0.000428364
0.0116859
0.000415073
0.0113661
0.000319796
0.0111546
0.000211523
0.0110189
0.000135729
0.010967
5.19501e-05
0.0110041
-3.71266e-05
0.0110868
-8.26735e-05
0.0112
-0.00011319
0.011347
-0.000146926
0.0115197
-0.000172772
0.011702
-0.000182213
0.011886
-0.000183978
0.0120727
-0.000186724
0.0122656
-0.000192934
0.0124551
-0.00018949
0.0126371
-0.00018193
0.0128084
-0.00017128
0.0129772
-0.000168827
0.0131392
-0.000162026
0.0132917
-0.000152477
0.0134329
-0.000141193
0.0135613
-0.00012837
0.0136831
-0.000121822
0.013795
-0.000111899
0.0138959
-0.000100823
0.0139853
-8.9426e-05
0.0140633
-7.80151e-05
0.0141193
-5.59727e-05
0.0141247
-5.42198e-06
0.0141045
2.02361e-05
0.0140855
1.90247e-05
0.0140975
-1.19953e-05
-6.77546e-05
0.0141652
0.00717332
-0.00330449
-0.00598064
0.00823872
-0.00245268
0.00920307
-0.00146786
0.0100414
-0.000829891
0.0107603
-0.000417442
0.011328
-0.000122844
0.0117635
-7.09496e-06
0.0120649
0.000113661
0.0122863
9.83967e-05
0.0124526
4.52625e-05
0.0125623
2.60021e-05
0.0126552
-4.08919e-05
0.0127672
-0.000149137
0.0128759
-0.000191405
0.0129873
-0.000224562
0.0131266
-0.000286246
0.0132824
-0.000328484
0.0134424
-0.000342258
0.0136052
-0.000346791
0.01378
-0.000361465
0.0139645
-0.000377468
0.0141467
-0.000371693
0.0143249
-0.00036007
0.0144968
-0.00034316
0.0146748
-0.000346824
0.014846
-0.000333205
0.0150086
-0.000315132
0.0151615
-0.000294052
0.0153033
-0.000270133
0.0154429
-0.000261479
0.0155715
-0.000240445
0.0156881
-0.000217402
0.0157915
-0.000192862
0.0158803
-0.000166806
0.0159562
-0.000131832
0.0160158
-6.50517e-05
0.0160652
-2.91877e-05
0.0161118
-2.75794e-05
0.0161622
-6.23138e-05
-0.000134608
0.016229
0.0065996
-0.00437488
-0.00552921
0.00760383
-0.0034569
0.00855341
-0.00241742
0.00937417
-0.00165065
0.0100954
-0.00113864
0.010727
-0.000754443
0.0112509
-0.000530938
0.0117083
-0.000343768
0.0120848
-0.000278071
0.0123998
-0.000269774
0.0126669
-0.000241064
0.0128974
-0.000271373
0.013109
-0.000360707
0.0133036
-0.000386073
0.0134885
-0.000409435
0.0136796
-0.000477376
0.0138744
-0.000523231
0.0140684
-0.000536237
0.0142622
-0.00054058
0.0144613
-0.00056059
0.0146638
-0.000579915
0.0148626
-0.000570541
0.0150572
-0.000554632
0.0152464
-0.000532324
0.015436
-0.000536483
0.0156179
-0.000515115
0.0157911
-0.000488327
0.0159551
-0.000457986
0.016109
-0.000424061
0.0162568
-0.000409239
0.0163929
-0.000376535
0.0165168
-0.000341325
0.0166281
-0.000304132
0.016726
-0.000264785
0.0168118
-0.000217552
0.0168828
-0.000136106
0.0169397
-8.6095e-05
0.0169864
-7.42566e-05
0.0170239
-9.97831e-05
-0.00016267
0.017052
0.00593705
-0.00527701
-0.00503493
0.00682946
-0.0043493
0.00771777
-0.00330572
0.0085468
-0.00247968
0.00931463
-0.00190646
0.0100138
-0.00145356
0.0106256
-0.00114274
0.0111809
-0.000899067
0.0116645
-0.000761654
0.0120908
-0.000696125
0.0124707
-0.000620934
0.0128085
-0.000609217
0.0131159
-0.000668107
0.0133976
-0.000667729
0.0136581
-0.00066994
0.0139098
-0.000729101
0.0141544
-0.000767736
0.0143904
-0.000772252
0.0146195
-0.000769695
0.0148477
-0.000788762
0.0150747
-0.000806925
0.0152954
-0.000791255
0.0155094
-0.000768678
0.0157162
-0.000739059
0.0159216
-0.000741866
0.0161183
-0.000711868
0.0163055
-0.000675471
0.0164824
-0.000634903
0.0166484
-0.000590101
0.0168078
-0.000568551
0.016955
-0.000523768
0.0170896
-0.000475941
0.0172111
-0.000425604
0.0173189
-0.000372584
0.0174149
-0.000313511
0.0174976
-0.000218868
0.0175666
-0.00015504
0.017623
-0.00013072
0.0176678
-0.000144497
-0.000194903
0.0177
0.00559005
-0.00610506
-0.00476201
0.00641926
-0.00517851
0.00725932
-0.00414578
0.00807127
-0.00329162
0.00885294
-0.00268813
0.00959181
-0.00219242
0.0102589
-0.00180981
0.0108839
-0.00152405
0.0114416
-0.00131942
0.011943
-0.00119743
0.0124004
-0.00107838
0.0128124
-0.00102125
0.0131855
-0.00104114
0.0135296
-0.0010118
0.0138482
-0.000988607
0.0141486
-0.00102947
0.0144348
-0.00105389
0.0147079
-0.00104536
0.0149699
-0.00103173
0.0152255
-0.00104436
0.0154754
-0.00105679
0.0157166
-0.00103249
0.0159493
-0.00100134
0.0161732
-0.000962962
0.0163926
-0.00096129
0.0166023
-0.000921537
0.0168014
-0.00087461
0.0169896
-0.000823086
0.0171664
-0.000766865
0.0173346
-0.000736746
0.0174901
-0.000679272
0.0176324
-0.000618266
0.0177612
-0.000554392
0.0178761
-0.000487505
0.0179785
-0.000415884
0.0180674
-0.0003077
0.0181417
-0.000229364
0.0182016
-0.000190651
0.0182469
-0.000189777
-0.000224695
0.0182767
0.00533823
-0.00688802
-0.00455527
0.00612681
-0.0059671
0.00692999
-0.00494896
0.00772006
-0.00408168
0.00849725
-0.00346532
0.00925105
-0.00294623
0.00995153
-0.00251028
0.0106236
-0.00219612
0.0112383
-0.0019341
0.0118018
-0.001761
0.0123256
-0.00160214
0.0128038
-0.0014994
0.0132386
-0.00147599
0.0136422
-0.00141535
0.0140168
-0.00136326
0.014366
-0.0013787
0.0146953
-0.00138319
0.0150074
-0.0013574
0.0153042
-0.00132852
0.0155894
-0.00132961
0.0158647
-0.00133208
0.0161288
-0.00129656
0.016382
-0.0012545
0.0166243
-0.00120532
0.0168595
-0.00119642
0.0170835
-0.00114556
0.0172958
-0.00108694
0.0174961
-0.00102338
0.017684
-0.000954748
0.0178619
-0.000914673
0.0180264
-0.00084378
0.0181771
-0.000768917
0.0183136
-0.000690854
0.0184355
-0.00060948
0.0185442
-0.000524581
0.0186388
-0.000402273
0.0187182
-0.000308762
0.0187822
-0.00025467
0.0188306
-0.0002381
-0.000256761
0.0188626
0.00516591
-0.00764875
-0.00440519
0.00593261
-0.0067338
0.00671314
-0.00572949
0.00748675
-0.00485529
0.00825566
-0.00423422
0.00901265
-0.00370322
0.00973067
-0.0032283
0.0104316
-0.00289706
0.011086
-0.00258844
0.0116966
-0.00237167
0.0122734
-0.00217891
0.0128072
-0.00203324
0.0132966
-0.00196536
0.0137543
-0.0018731
0.0141816
-0.00179054
0.0145784
-0.00177543
0.0149508
-0.00175562
0.0153026
-0.00170921
0.0156357
-0.00166159
0.0159526
-0.00164651
0.0162555
-0.00163493
0.0165445
-0.00158557
0.0168202
-0.00153022
0.0170829
-0.00146808
0.0173354
-0.00144893
0.0175753
-0.00138538
0.0178021
-0.00131372
0.0180156
-0.00123688
0.0182155
-0.00115471
0.0184039
-0.00110301
0.0185779
-0.0010178
0.0187372
-0.000928245
0.0188816
-0.000835201
0.0190107
-0.000738585
0.0191255
-0.000639423
0.0192254
-0.000502151
0.0193093
-0.000392651
0.0193768
-0.000322203
0.0194276
-0.000288861
-0.000290257
0.0194611
0.00504366
-0.00840075
-0.00429167
0.00580108
-0.00749122
0.0065704
-0.00649881
0.00733523
-0.00562012
0.00809864
-0.00499764
0.00885598
-0.00446056
0.0095842
-0.00395652
0.0103029
-0.00361576
0.0109845
-0.00327009
0.0116301
-0.00301718
0.0122478
-0.0027967
0.0128271
-0.00261248
0.0133633
-0.00250159
0.0138691
-0.00237889
0.0143445
-0.0022659
0.0147863
-0.00221728
0.0152009
-0.00217024
0.0155925
-0.0021008
0.0159626
-0.00203168
0.0163126
-0.00199652
0.0166449
-0.00196721
0.0169609
-0.0019015
0.0172611
-0.00183049
0.0175462
-0.00175318
0.0178181
-0.00172074
0.0180755
-0.0016428
0.0183183
-0.00155657
0.0185465
-0.00146505
0.0187598
-0.00136802
0.0189598
-0.00130296
0.0191443
-0.00120239
0.0193133
-0.00109716
0.0194663
-0.000988189
0.0196031
-0.000875413
0.0197246
-0.000760903
0.0198302
-0.000607734
0.0199189
-0.000481371
0.0199903
-0.000393646
0.0200441
-0.000342618
-0.000325919
0.0200797
0.00495772
-0.00915343
-0.00420504
0.00571492
-0.00824843
0.00648195
-0.00726584
0.00724525
-0.00638343
0.00800807
-0.00576046
0.0087674
-0.00521989
0.00950391
-0.00469303
0.0102353
-0.00434713
0.0109369
-0.00397175
0.0116088
-0.00368909
0.0122584
-0.00344626
0.0128742
-0.00322829
0.0134499
-0.00307726
0.0139972
-0.00292624
0.0145153
-0.00278398
0.0149988
-0.0027007
0.0154534
-0.00262485
0.0158835
-0.0025309
0.0162901
-0.00243836
0.0166736
-0.00238001
0.0170363
-0.00232989
0.0173804
-0.00224561
0.0177067
-0.00215674
0.0180156
-0.00206213
0.0183084
-0.00201348
0.0185849
-0.00191935
0.0188453
-0.00181696
0.0190895
-0.00170925
0.0193175
-0.00159595
0.0195302
-0.0015157
0.0197264
-0.00139859
0.0199058
-0.00127658
0.0200683
-0.00115062
0.0202135
-0.00102065
0.0203422
-0.000889609
0.020454
-0.000719508
0.0205479
-0.000575338
0.0206237
-0.000469369
0.0206807
-0.000399697
-0.000363995
0.0207188
0.00489874
-0.00991343
-0.00413874
0.00566236
-0.00901205
0.00643389
-0.00803737
0.00720176
-0.00715129
0.00796903
-0.00652774
0.00873367
-0.00598453
0.0094794
-0.00543877
0.0102222
-0.00508988
0.0109404
-0.00469003
0.0116339
-0.00438252
0.0123091
-0.00412147
0.0129549
-0.00387412
0.013564
-0.00368634
0.0141471
-0.00350939
0.0147028
-0.00333962
0.0152239
-0.00322179
0.0157156
-0.00311659
0.0161821
-0.00299742
0.016624
-0.00288028
0.0170405
-0.0027965
0.0174337
-0.00272312
0.0178065
-0.00261839
0.0181595
-0.00250973
0.0184933
-0.00239589
0.0188081
-0.0023283
0.019105
-0.00221625
0.0193841
-0.00209608
0.0196455
-0.00197064
0.0198892
-0.0018396
0.0201157
-0.00174228
0.0203245
-0.00160739
0.0205154
-0.0014674
0.020688
-0.00132329
0.0208424
-0.00117501
0.020979
-0.00102617
0.0210975
-0.000838034
0.0211972
-0.000675044
0.0212776
-0.000549816
0.0213384
-0.0004605
-0.000404831
0.0213793
0.00486068
-0.0106858
-0.00408832
0.00563578
-0.00978716
0.00641711
-0.0088187
0.00719453
-0.00792871
0.00797078
-0.00730399
0.0087444
-0.00675815
0.00950151
-0.00619589
0.0102564
-0.00584481
0.0109905
-0.00542406
0.0117031
-0.00509519
0.0124005
-0.00481884
0.0130721
-0.0045457
0.0137102
-0.00432443
0.0143246
-0.0041238
0.0149134
-0.00392841
0.0154685
-0.00377691
0.0159944
-0.00364252
0.016495
-0.00349797
0.0169703
-0.00335563
0.0174188
-0.0032449
0.0178421
-0.00314645
0.0182434
-0.00301975
0.0186234
-0.00288965
0.0189824
-0.00275489
0.01932
-0.00266595
0.0196381
-0.00253432
0.0199368
-0.00239479
0.0202162
-0.0022501
0.0204765
-0.00209984
0.0207178
-0.00198359
0.02094
-0.0018296
0.021143
-0.00167038
0.0213266
-0.00150691
0.0214907
-0.00133912
0.0216357
-0.00117117
0.0217615
-0.000963833
0.0218674
-0.000780949
0.021953
-0.000635391
0.0220179
-0.000525375
-0.00044871
0.0220618
0.00483935
-0.0114745
-0.00405069
0.00562995
-0.0105778
0.00642531
-0.00961406
0.00721639
-0.00871979
0.00800556
-0.00809316
0.00879166
-0.00754425
0.00956273
-0.00696696
0.0103316
-0.00661368
0.0110819
-0.00617437
0.0118133
-0.00582655
0.0125312
-0.00553679
0.0132261
-0.00524062
0.0138904
-0.0049887
0.0145329
-0.00476629
0.0151515
-0.004547
0.0157376
-0.00436308
0.0162951
-0.00420004
0.0168274
-0.00403027
0.0173343
-0.00386252
0.0178133
-0.00372391
0.018266
-0.00359906
0.0186954
-0.0034492
0.0191021
-0.00329633
0.0194864
-0.00313919
0.0198472
-0.00302679
0.0201869
-0.00287403
0.0205058
-0.00271366
0.0208039
-0.00254824
0.0210814
-0.0023773
0.0213381
-0.00224032
0.0215744
-0.00206591
0.0217902
-0.00188616
0.0219854
-0.00170206
0.0221598
-0.00151352
0.0223137
-0.00132512
0.0224473
-0.00109736
0.0225598
-0.000893453
0.0226508
-0.000726443
0.0227201
-0.000594621
-0.000495872
0.0227672
0.00483179
-0.0122827
-0.00402357
0.0056412
-0.0113872
0.00645409
-0.010427
0.00726228
-0.00952799
0.00806777
-0.00889865
0.00886955
-0.00834604
0.00965718
-0.00775459
0.0104421
-0.00739862
0.01121
-0.00694226
0.0119605
-0.00657706
0.0126987
-0.00627499
0.0134159
-0.0059578
0.0141047
-0.00567756
0.0147733
-0.00543482
0.0154194
-0.00519309
0.0160343
-0.00497804
0.0166214
-0.00478705
0.0171835
-0.00459239
0.0177202
-0.00439923
0.0182285
-0.0042322
0.0187095
-0.00408004
0.0191663
-0.00390609
0.0195994
-0.00372935
0.0200087
-0.00354858
0.0203929
-0.00341092
0.0207545
-0.00323564
0.0210939
-0.00305302
0.0214111
-0.00286545
0.0217062
-0.00267243
0.0219789
-0.002513
0.0222298
-0.00231681
0.0224589
-0.00211523
0.022666
-0.00190921
0.0228511
-0.00169866
0.0230145
-0.00148843
0.0231561
-0.00123899
0.0232755
-0.00101289
0.0233723
-0.000823258
0.0234462
-0.000668475
-0.000546502
0.0234968
0.00483584
-0.0131132
-0.0040053
0.00566689
-0.0122182
0.00650029
-0.0112604
0.00732856
-0.0103563
0.00815333
-0.00972342
0.00897368
-0.0091664
0.00978037
-0.00856128
0.0105836
-0.00820188
0.0113708
-0.00772939
0.0121415
-0.00734779
0.0129004
-0.00703394
0.0136397
-0.0066971
0.0143525
-0.00639034
0.015046
-0.00612833
0.0157182
-0.00586524
0.0163604
-0.00562031
0.0169754
-0.00540205
0.0175659
-0.00518283
0.018131
-0.00496435
0.0186674
-0.00476863
0.0191759
-0.00458852
0.0196596
-0.00438974
0.0201184
-0.0041882
0.0205526
-0.00398274
0.02096
-0.00381831
0.0213435
-0.00361921
0.0217035
-0.00341304
0.0220401
-0.00320197
0.0223531
-0.00298551
0.0226421
-0.00280199
0.022908
-0.00258271
0.0231508
-0.00235798
0.0233703
-0.00212873
0.0235665
-0.00189488
0.0237395
-0.00166144
0.0238896
-0.00138903
0.0240162
-0.00113951
0.024119
-0.000926058
0.0241976
-0.000747118
-0.000600736
0.0242519
0.00484992
-0.0139685
-0.00399459
0.0057051
-0.0130734
0.00656162
-0.0121169
0.00741257
-0.0112072
0.00825926
-0.0105701
0.00910079
-0.0100079
0.00992888
-0.00938937
0.0107527
-0.00902568
0.0115609
-0.00853758
0.0123532
-0.00814011
0.0131339
-0.00781462
0.0138958
-0.00745899
0.0146325
-0.00712707
0.0153506
-0.00684645
0.0160481
-0.00656275
0.0167168
-0.00628896
0.0173588
-0.00604405
0.0179765
-0.00580054
0.018569
-0.00555686
0.0191327
-0.0053323
0.0196679
-0.0051238
0.0201777
-0.00489955
0.020662
-0.00467242
0.0211206
-0.00444135
0.0215511
-0.00424882
0.0219566
-0.00402473
0.0223373
-0.00379377
0.0226933
-0.00355794
0.0230245
-0.00331673
0.0233301
-0.00310758
0.0236113
-0.00286388
0.023868
-0.00261469
0.0241002
-0.0023609
0.0243077
-0.00210244
0.0244907
-0.0018444
0.0246494
-0.00154772
0.0247834
-0.00127354
0.0248924
-0.00103501
0.0249759
-0.000830678
-0.000658661
0.0250338
0.00487281
-0.0148509
-0.00399046
0.00575439
-0.013955
0.0066364
-0.0129989
0.00751239
-0.0120832
0.00838338
-0.0114411
0.00924847
-0.010873
0.0101002
-0.0102411
0.0109467
-0.00987218
0.0117778
-0.00936869
0.0125932
-0.00895557
0.0133969
-0.00861827
0.0141823
-0.00824437
0.0149434
-0.00788823
0.0156863
-0.00758934
0.016409
-0.00728547
0.0171037
-0.00698366
0.0177722
-0.00671254
0.0184166
-0.0064449
0.0190358
-0.00617607
0.0196261
-0.00592259
0.0201876
-0.00568532
0.0207231
-0.00543505
0.0212323
-0.00518162
0.0217151
-0.0049241
0.0221686
-0.00470235
0.022596
-0.00445216
0.0229975
-0.00419524
0.023373
-0.00393344
0.0237225
-0.00366622
0.0240449
-0.00342997
0.0243415
-0.00316054
0.0246124
-0.00288558
0.0248575
-0.00260595
0.0250766
-0.00232157
0.0252697
-0.00203752
0.0254372
-0.00171523
0.0255788
-0.00141511
0.025694
-0.00115023
0.0257826
-0.000919238
-0.000720319
0.0258443
0.00490359
-0.0157623
-0.00399214
0.00581368
-0.0148651
0.00672335
-0.0139086
0.00762657
-0.0129864
0.00852406
-0.0123386
0.00941493
-0.0117639
0.0102923
-0.0111185
0.0111636
-0.0107434
0.0120195
-0.0102246
0.0128597
-0.00979582
0.0136878
-0.00944633
0.0144978
-0.00905435
0.0152842
-0.00867465
0.0160524
-0.00835755
0.0168006
-0.00803369
0.0175214
-0.00770443
0.0182162
-0.0074074
0.018887
-0.00711566
0.0195326
-0.00682163
0.0201491
-0.00653914
0.0207366
-0.00627279
0.0212975
-0.00599594
0.0218314
-0.00571555
0.0223381
-0.00543078
0.0228145
-0.0051788
0.0232638
-0.00490146
0.0236861
-0.00461749
0.0240812
-0.00432852
0.024449
-0.00403408
0.0247884
-0.00376933
0.0251007
-0.00347289
0.025386
-0.00317085
0.0256441
-0.00286405
0.025875
-0.00255242
0.0260784
-0.00224098
0.0262549
-0.00189173
0.0264041
-0.00156435
0.0265257
-0.00127181
0.0266193
-0.00101284
-0.00078572
0.0266847
0.00494155
-0.0167049
-0.00399902
0.00588216
-0.0158057
0.00682156
-0.014848
0.00775405
-0.0139189
0.00868014
-0.0132647
0.00959887
-0.0126826
0.010504
-0.0120236
0.011402
-0.0116414
0.0122845
-0.0111071
0.0131512
-0.0106625
0.0140051
-0.0103003
0.014841
-0.00989024
0.0156537
-0.00948734
0.0164481
-0.00915189
0.0172224
-0.00880799
0.0179696
-0.00845167
0.018691
-0.00812884
0.0193883
-0.00781289
0.0200601
-0.0074935
0.0207029
-0.00718186
0.0213162
-0.00688609
0.0219023
-0.00658211
0.0224609
-0.00627408
0.0229914
-0.00596131
0.0234908
-0.00567818
0.023962
-0.00537268
0.024405
-0.00506056
0.0248198
-0.00474329
0.0252061
-0.00442041
0.0255626
-0.00412581
0.0258908
-0.00380107
0.0261906
-0.00347066
0.0264619
-0.00313536
0.0267046
-0.00279513
0.0269186
-0.0024549
0.0271041
-0.00207731
0.0272611
-0.00172133
0.0273891
-0.00139979
0.0274878
-0.00111151
-0.000854845
0.0275569
0.00498615
-0.0176804
-0.00401062
0.00595922
-0.0167788
0.00693031
-0.0158191
0.00789406
-0.0148827
0.00885073
-0.0142213
0.00979932
-0.0136312
0.010734
-0.0129583
0.0116607
-0.0125681
0.0125716
-0.012018
0.0134665
-0.0115573
0.0143479
-0.0111818
0.0152111
-0.0107534
0.0160513
-0.0103275
0.0168728
-0.00997337
0.017674
-0.0096092
0.0184483
-0.009226
0.0191968
-0.00887733
0.0199208
-0.00853693
0.0206192
-0.0081919
0.0212883
-0.00785089
0.0219275
-0.00752531
0.022539
-0.00719361
0.0231222
-0.00685727
0.0236766
-0.00651571
0.024199
-0.00620056
0.0246922
-0.00586589
0.0251562
-0.00552455
0.0255907
-0.00517783
0.0259956
-0.00482533
0.0263694
-0.00449959
0.0267136
-0.00414525
0.0270281
-0.00378514
0.0273127
-0.00342002
0.0275674
-0.00304984
0.0277919
-0.00267941
0.0279867
-0.00227207
0.0281515
-0.00188611
0.0282859
-0.00153419
0.0283896
-0.00121523
-0.000927652
0.0284624
0.00503697
-0.0186908
-0.00402655
0.00604439
-0.0177862
0.00704911
-0.0168238
0.00804604
-0.0158796
0.00903522
-0.0152105
0.0100156
-0.0146116
0.0109818
-0.0139245
0.0119391
-0.0135253
0.0128802
-0.0129591
0.0138048
-0.012482
0.0147155
-0.0120924
0.0156074
-0.0116454
0.0164763
-0.0111964
0.0173261
-0.0108231
0.0181552
-0.0104383
0.0189574
-0.0100282
0.0197337
-0.00965354
0.020485
-0.00928832
0.0212104
-0.00891726
0.0219061
-0.00854655
0.0225715
-0.00819074
0.0232086
-0.00783067
0.0238166
-0.0074653
0.024395
-0.00709414
0.0249406
-0.00674611
0.025456
-0.00638127
0.025941
-0.00600963
0.0263955
-0.00563233
0.0268192
-0.00524901
0.0272105
-0.00489083
0.0275708
-0.00450561
0.0279001
-0.00411447
0.0281983
-0.00371816
0.0284651
-0.00331667
0.0287003
-0.00291461
0.0289044
-0.00247611
0.029077
-0.00205876
0.0292179
-0.00167505
0.0293266
-0.00132399
-0.00100409
0.0294031
0.00509368
-0.019738
-0.00404649
0.00613732
-0.0188298
0.00717759
-0.0178641
0.00820959
-0.0169116
0.00923319
-0.0162341
0.0102473
-0.0156257
0.0112469
-0.0149241
0.0122365
-0.014515
0.0132096
-0.0139323
0.0141658
-0.0134382
0.0151072
-0.0130338
0.0160295
-0.0125677
0.0169285
-0.0120954
0.0178078
-0.0117025
0.018666
-0.0112965
0.0194971
-0.0108594
0.0203018
-0.0104583
0.0210813
-0.0100678
0.0218342
-0.00967018
0.022557
-0.00926937
0.0232491
-0.00888282
0.0239121
-0.00849366
0.0245453
-0.00809848
0.025148
-0.00769689
0.025717
-0.00731512
0.0262548
-0.00691908
0.0267612
-0.00651605
0.0272359
-0.006107
0.0276786
-0.00569165
0.0280875
-0.00529976
0.0284642
-0.00488233
0.0288086
-0.00445883
0.0291204
-0.00402996
0.0293995
-0.00359575
0.0296455
-0.00316061
0.0298589
-0.0026895
0.0300394
-0.00223932
0.0301867
-0.00182238
0.0303005
-0.00143777
-0.0010841
0.0303805
0.00515604
-0.0208239
-0.0040702
0.00623779
-0.0199116
0.00731549
-0.0189418
0.00838446
-0.0179806
0.00944437
-0.017294
0.0104941
-0.0166754
0.0115288
-0.0159588
0.0125527
-0.0155389
0.0135597
-0.0149392
0.0145491
-0.0144276
0.0155229
-0.0140076
0.016477
-0.0135218
0.0174076
-0.013026
0.0183178
-0.0126127
0.0192063
-0.0121849
0.0200673
-0.0117205
0.0209016
-0.0112926
0.02171
-0.0108761
0.0224912
-0.0104514
0.0232419
-0.01002
0.0239612
-0.00960211
0.0246506
-0.00918309
0.0253094
-0.00875727
0.0259368
-0.00832434
0.0265297
-0.00790795
0.0270902
-0.00747965
0.0276183
-0.0070441
0.0281134
-0.00660213
0.0285753
-0.00615352
0.0290022
-0.00572663
0.0293955
-0.00527566
0.0297551
-0.00481842
0.0300807
-0.00435559
0.0303722
-0.00388723
0.0306291
-0.00341755
0.030852
-0.00291234
0.0310405
-0.00242786
0.0311943
-0.00197619
0.0313131
-0.00155655
-0.00116763
0.0313966
0.00522386
-0.0219502
-0.00409748
0.00634563
-0.0210333
0.00746267
-0.0200588
0.0085705
-0.0190884
0.00966861
-0.0183921
0.0107558
-0.0177626
0.0118276
-0.0170307
0.0128876
-0.0165989
0.0139301
-0.0159817
0.0149545
-0.015452
0.0159624
-0.0150155
0.0169501
-0.0145095
0.0179137
-0.0139897
0.0188563
-0.0135552
0.0197763
-0.0131049
0.0206685
-0.0126127
0.0215334
-0.0121575
0.0223717
-0.0117144
0.0231821
-0.0112618
0.0239614
-0.0107992
0.0247086
-0.0103493
0.0254251
-0.0098996
0.02611
-0.00944222
0.0267627
-0.00897701
0.0273798
-0.00852506
0.0279636
-0.00806341
0.0285136
-0.00759417
0.0290296
-0.00711807
0.029511
-0.00663493
0.0299561
-0.00617175
0.0303663
-0.00568587
0.0307414
-0.00519347
0.031081
-0.00469525
0.0313851
-0.00419128
0.0316531
-0.00368556
0.0318855
-0.00314474
0.0320821
-0.00262442
0.0322424
-0.00213651
0.0323661
-0.0016803
-0.0012546
0.0324531
0.00529703
-0.0231191
-0.00412818
0.00646072
-0.022197
0.00761904
-0.0212171
0.00876765
-0.020237
0.00990587
-0.0195303
0.0110325
-0.0188892
0.0121432
-0.0181414
0.0132411
-0.0176969
0.014321
-0.0170616
0.0153822
-0.0165131
0.0164259
-0.0160592
0.0174487
-0.0155323
0.018447
-0.014988
0.0194233
-0.0145315
0.0203763
-0.0140578
0.021301
-0.0135374
0.0221977
-0.0130543
0.023067
-0.0125837
0.0239076
-0.0121024
0.0247163
-0.0116079
0.0254922
-0.0111253
0.0262366
-0.0106439
0.0269483
-0.010154
0.0276268
-0.00965549
0.0282688
-0.00916703
0.0288762
-0.00867086
0.0294488
-0.00816673
0.029986
-0.00765523
0.0304873
-0.00713626
0.030951
-0.00663546
0.0313784
-0.00611326
0.0317692
-0.00558427
0.0321231
-0.00504918
0.0324399
-0.0045081
0.0327192
-0.00396481
0.0329613
-0.00338682
0.0331659
-0.0028291
0.0333328
-0.00230337
0.0334615
-0.00180903
-0.00134496
0.0335519
0.00537546
-0.0243324
-0.00416218
0.00658304
-0.0234046
0.0077846
-0.0224187
0.00897592
-0.0214283
0.0101562
-0.0207106
0.0113241
-0.0200571
0.0124756
-0.0192929
0.0136134
-0.0188347
0.0147326
-0.0181808
0.0158322
-0.0176127
0.0169135
-0.0171406
0.0179731
-0.0165919
0.0190077
-0.0160225
0.0200193
-0.0155432
0.0210067
-0.0150453
0.0219653
-0.014496
0.022895
-0.013984
0.0237965
-0.0134851
0.0246684
-0.0129743
0.0255076
-0.0124471
0.0263132
-0.0119309
0.0270861
-0.0114168
0.0278255
-0.0108934
0.0285305
-0.0103605
0.0291979
-0.00983448
0.0298296
-0.00930259
0.0304252
-0.0087623
0.0309841
-0.0082141
0.0315058
-0.00765795
0.0319885
-0.00711816
0.0324334
-0.0065582
0.0328403
-0.00599113
0.0332087
-0.00541764
0.0335386
-0.00483792
0.0338292
-0.00425548
0.0340811
-0.00363871
0.034294
-0.00304199
0.0344675
-0.00247682
0.0346011
-0.00194271
-0.00143867
0.0346948
0.0054591
-0.0255921
-0.00419938
0.00671258
-0.0246581
0.00795938
-0.0236655
0.00919541
-0.0226644
0.0104197
-0.0219349
0.0116309
-0.0212683
0.0128251
-0.0204871
0.0140047
-0.0200143
0.0151649
-0.019341
0.0163049
-0.0187527
0.0174256
-0.0182613
0.0185238
-0.01769
0.0195962
-0.0170949
0.0206448
-0.0165918
0.0216682
-0.0160686
0.0226619
-0.0154898
0.0236261
-0.0149482
0.024561
-0.01442
0.0254653
-0.0138786
0.0263361
-0.0133179
0.0271723
-0.0127671
0.0279748
-0.0122194
0.0287427
-0.0116612
0.029475
-0.0110928
0.0301686
-0.0105281
0.0308253
-0.00995925
0.0314445
-0.0093815
0.0320256
-0.00879523
0.0325681
-0.00820048
0.0330703
-0.00762031
0.0335332
-0.00702107
0.0339564
-0.00641439
0.0343397
-0.00580095
0.0346828
-0.00518097
0.0349851
-0.00455778
0.035247
-0.00390059
0.0354682
-0.00326319
0.0356483
-0.00265692
0.0357869
-0.00208137
-0.00153567
0.0358839
0.00554796
-0.0269003
-0.00423973
0.00684939
-0.0259595
0.00814347
-0.0249596
0.00942625
-0.0239471
0.0106966
-0.0232053
0.0119531
-0.0225248
0.013192
-0.021726
0.0144153
-0.0212376
0.0156185
-0.0205442
0.0168007
-0.0199349
0.0179626
-0.0194232
0.0191011
-0.0188285
0.0202131
-0.0182068
0.0213003
-0.0176789
0.0223612
-0.0171296
0.0233917
-0.0165203
0.0243917
-0.0159482
0.0253613
-0.0153897
0.0262994
-0.0148167
0.0272029
-0.0142214
0.0280709
-0.0136351
0.028904
-0.0130524
0.0297012
-0.0124584
0.0304616
-0.0118532
0.0311823
-0.0112488
0.0318646
-0.0106416
0.0325081
-0.010025
0.0331121
-0.00939923
0.033676
-0.00876443
0.0341981
-0.00814241
0.0346794
-0.00750234
0.0351194
-0.00685445
0.0355179
-0.00619944
0.0358745
-0.00553756
0.0361887
-0.00487195
0.0364607
-0.00417263
0.0366904
-0.00349284
0.0368772
-0.00284373
0.0370208
-0.00222502
-0.00163594
0.0371211
0.00564204
-0.0282592
-0.00428318
0.00699353
-0.027311
0.00833702
-0.0263031
0.00966863
-0.0252787
0.0109871
-0.0245237
0.0122909
-0.0238286
0.0135765
-0.0230116
0.0148456
-0.0225067
0.0160938
-0.0217924
0.0173201
-0.0211612
0.0185251
-0.0206282
0.0197058
-0.0200092
0.0208591
-0.0193602
0.0219865
-0.0188063
0.0230866
-0.0182297
0.0241555
-0.0175891
0.0251927
-0.0169855
0.0261986
-0.0163955
0.0271716
-0.0157898
0.0281091
-0.0151589
0.02901
-0.0145359
0.0298748
-0.0139172
0.0307024
-0.0132861
0.0314919
-0.0126427
0.0322404
-0.0119973
0.0329492
-0.0113504
0.0336177
-0.0106935
0.0342452
-0.0100268
0.0348312
-0.00935038
0.0353738
-0.008685
0.0358739
-0.00800249
0.0363312
-0.00731175
0.0367453
-0.00661348
0.0371157
-0.00590801
0.037442
-0.00519824
0.0377244
-0.00445504
0.0379627
-0.00373108
0.0381563
-0.00303736
0.038305
-0.0023737
-0.00173946
0.0384085
0.00574139
-0.0296708
-0.00432972
0.00714513
-0.0287148
0.00854018
-0.0276981
0.00992277
-0.0266613
0.0112915
-0.0258924
0.0126448
-0.0251819
0.0139792
-0.024346
0.015296
-0.0238235
0.0165912
-0.0230876
0.0178636
-0.0224337
0.0191136
-0.0218782
0.0203384
-0.0212339
0.0215348
-0.0205567
0.0227043
-0.0199758
0.0238453
-0.0193707
0.0249541
-0.0186978
0.0260302
-0.0180616
0.0270737
-0.0174389
0.0280832
-0.0167993
0.029056
-0.0161318
0.029991
-0.0154709
0.0308886
-0.0148148
0.0317477
-0.0141451
0.0325673
-0.0134624
0.0333446
-0.0127746
0.0340807
-0.0120865
0.034775
-0.0113878
0.0354268
-0.0106786
0.0360355
-0.009959
0.0365991
-0.00924869
0.0371187
-0.00852206
0.0375937
-0.00778675
0.0380237
-0.00704349
0.0384084
-0.00629265
0.0387471
-0.00553696
0.0390401
-0.00474805
0.0392871
-0.0039781
0.0394877
-0.00323792
0.0396414
-0.00252746
-0.00184621
0.0397482
0.00584609
-0.0311376
-0.00437933
0.00730431
-0.030173
0.00875317
-0.029147
0.010189
-0.0280971
0.0116101
-0.0273136
0.013015
-0.0265868
0.0144004
-0.0257313
0.0157671
-0.0251902
0.0171113
-0.0244318
0.0184319
-0.0237542
0.0197289
-0.0231753
0.0209996
-0.0225047
0.0222412
-0.0217982
0.0234545
-0.0211891
0.0246382
-0.0205544
0.0257885
-0.0198482
0.0269051
-0.0191782
0.0279878
-0.0185216
0.0290352
-0.0178467
0.0300448
-0.0171413
0.0310152
-0.0164414
0.0319468
-0.0157464
0.0328385
-0.0150369
0.0336894
-0.0143132
0.0344965
-0.0135817
0.0352608
-0.0128509
0.0359818
-0.0121088
0.0366587
-0.0113554
0.0372907
-0.010591
0.0378761
-0.00983412
0.0384157
-0.00906163
0.0389089
-0.00827998
0.0393554
-0.00748993
0.0397546
-0.00669188
0.0401061
-0.00588842
0.0404099
-0.00505193
0.0406659
-0.00423407
0.0408735
-0.00344553
0.0410324
-0.00268636
-0.00195619
0.0411424
0.00595622
-0.0326618
-0.00443205
0.00747126
-0.031688
0.00897624
-0.030652
0.0104675
-0.0295884
0.0119434
-0.0287895
0.0134022
-0.0280456
0.0148406
-0.0271698
0.0162594
-0.026609
0.0176548
-0.0258272
0.0190256
-0.025125
0.0203717
-0.0245214
0.0216905
-0.0238234
0.022979
-0.0230867
0.0242381
-0.0224482
0.0254662
-0.0217826
0.02666
-0.0210419
0.0278187
-0.0203369
0.0289422
-0.0196451
0.0300291
-0.0189336
0.0310768
-0.0181889
0.032084
-0.0174486
0.033051
-0.0167134
0.0339766
-0.0159625
0.0348597
-0.0151963
0.0356977
-0.0144197
0.0364913
-0.0136445
0.0372399
-0.0128574
0.0379427
-0.0120581
0.0385988
-0.0112472
0.0392067
-0.010442
0.0397669
-0.00962183
0.0402789
-0.008792
0.0407423
-0.00795327
0.0411565
-0.00710613
0.0415211
-0.00625299
0.0418361
-0.00536695
0.0421012
-0.00449922
0.042316
-0.00366034
0.0424802
-0.00285047
-0.00206941
0.0425934
0.0060719
-0.0342458
-0.00448789
0.00764615
-0.0332623
0.00920964
-0.0322154
0.0107588
-0.0311375
0.0122917
-0.0303224
0.0138067
-0.0295606
0.0153005
-0.0286636
0.0167736
-0.0280822
0.0182225
-0.0272761
0.0196456
-0.0265482
0.0210429
-0.0259187
0.0224117
-0.0251922
0.0237493
-0.0244242
0.025056
-0.023755
0.0263306
-0.0230572
0.0275696
-0.0222809
0.0287722
-0.0215396
0.0299382
-0.0208111
0.0310662
-0.0200616
0.0321535
-0.0192763
0.0331991
-0.0184942
0.0342028
-0.0177171
0.0351635
-0.0169232
0.0360802
-0.016113
0.0369501
-0.0152896
0.0377741
-0.0144685
0.0385512
-0.0136345
0.0392807
-0.0127876
0.0399619
-0.0119283
0.040593
-0.0110731
0.0411745
-0.0102033
0.0417059
-0.00932339
0.0421866
-0.00843405
0.0426164
-0.00753583
0.0429944
-0.00663102
0.0433209
-0.00569343
0.0435954
-0.00477379
0.0438176
-0.00388251
0.043987
-0.00301989
-0.00218587
0.0441035
0.00619325
-0.0358921
-0.00454691
0.00782921
-0.0348982
0.00945368
-0.0338399
0.0110631
-0.0327469
0.0126555
-0.0319148
0.014229
-0.0311341
0.0157806
-0.0302152
0.0173104
-0.029612
0.018815
-0.0287806
0.0202927
-0.0280259
0.0217435
-0.0273694
0.0231645
-0.0266132
0.0245531
-0.0258128
0.0259096
-0.0251115
0.0272325
-0.0243801
0.0285186
-0.0235669
0.029767
-0.022788
0.0309772
-0.0220214
0.0321479
-0.0212323
0.0332766
-0.020405
0.0343619
-0.0195795
0.0354038
-0.0187589
0.036401
-0.0179204
0.0373525
-0.0170645
0.0382556
-0.0161928
0.039111
-0.0153238
0.0399177
-0.0144412
0.040675
-0.0135449
0.041382
-0.0126353
0.0420371
-0.0117281
0.0426406
-0.0108069
0.043192
-0.00987482
0.0436908
-0.00893283
0.0441365
-0.00798149
0.0445284
-0.00702295
0.0448667
-0.0060317
0.0451509
-0.00505802
0.0453806
-0.00411222
0.0455554
-0.00319472
-0.00230562
0.0456752
0.00632044
-0.0376034
-0.00460916