/*--------------------------------*- C++ -*----------------------------------*\
| =========                 |                                                 |
| \\      /  F ield         | OpenFOAM: The Open Source CFD Toolbox           |
|  \\    /   O peration     | Version:  3.0.1                                 |
|   \\  /    A nd           | Web:      www.OpenFOAM.org                      |
|    \\/     M anipulation  |                                                 |
\*---------------------------------------------------------------------------*/
FoamFile
{
    version     2.0;
    format      ascii;
    class       volVectorField;
    location    "500";
    object      U;
}
// * * * * * * * * * * * * * * * * * * * * * * * * * * * * * * * * * * * * * //

dimensions      [0 1 -1 0 0 0 0];

internalField   nonuniform List<vector> 
58000
(
(0.341646 0.923025 -2.35106e-21)
(0.456854 1.07545 -1.48286e-21)
(0.587001 1.14683 1.0095e-20)
(0.710938 1.1521 -1.96683e-20)
(0.813033 1.10808 -3.85399e-20)
(0.89543 1.03918 0)
(0.962281 0.964003 -2.51784e-20)
(1.01526 0.886797 -1.17805e-21)
(1.0599 0.812502 2.83218e-20)
(1.09676 0.746255 0)
(1.12737 0.686482 3.12587e-20)
(1.15385 0.633236 2.888e-20)
(1.17624 0.58826 -9.59168e-20)
(1.19308 0.549559 3.40632e-20)
(1.20615 0.515129 2.97236e-20)
(1.21663 0.484972 6.19565e-20)
(1.22441 0.45875 -9.05435e-20)
(1.23031 0.435234 0)
(1.23489 0.413351 5.89514e-20)
(1.23842 0.392824 -8.81634e-20)
(1.24091 0.37399 3.92479e-22)
(1.24238 0.356466 2.90803e-20)
(1.24337 0.339723 1.37626e-20)
(1.24347 0.323222 0)
(1.2433 0.307519 2.61725e-20)
(1.24216 0.292791 -1.30404e-20)
(1.24067 0.278646 0)
(1.23893 0.26489 3.60548e-22)
(1.23652 0.251241 0)
(1.23402 0.238193 -1.22431e-20)
(1.2309 0.225879 6.00294e-20)
(1.22764 0.213951 -5.95887e-20)
(1.22427 0.202261 -3.53275e-20)
(1.22063 0.190656 9.23841e-20)
(1.21671 0.179184 -2.29676e-20)
(1.2107 0.167816 -1.14258e-20)
(1.2012 0.157002 1.68631e-20)
(1.19131 0.147647 -1.08392e-20)
(1.18266 0.139758 1.61228e-20)
(1.18287 0.13449 0)
(0.533884 0.593205 -9.75688e-21)
(0.621912 0.672806 0)
(0.719539 0.73692 -1.03803e-23)
(0.815999 0.784803 1.07506e-23)
(0.91048 0.821355 2.15582e-20)
(1.00022 0.838752 1.68987e-20)
(1.07874 0.838172 -3.54263e-20)
(1.14645 0.823447 1.06407e-20)
(1.20288 0.797177 5.52153e-20)
(1.24658 0.764497 -3.02441e-20)
(1.28065 0.727114 0)
(1.30576 0.68678 -5.9304e-20)
(1.32277 0.648063 3.8574e-20)
(1.33493 0.611557 2.1884e-20)
(1.34369 0.575821 -2.20688e-20)
(1.34961 0.542574 0)
(1.35345 0.512695 2.20827e-20)
(1.35594 0.484853 0)
(1.35741 0.458236 8.37821e-20)
(1.35806 0.433352 -1.25547e-19)
(1.35812 0.410779 0)
(1.3577 0.389685 1.03146e-19)
(1.3569 0.369335 -8.15361e-20)
(1.35563 0.349519 0)
(1.35405 0.33108 -2.98143e-20)
(1.35222 0.314029 0)
(1.3501 0.297526 0)
(1.34768 0.281402 2.88044e-20)
(1.34488 0.265569 0)
(1.34189 0.250657 -2.81445e-20)
(1.33876 0.236674 3.71517e-20)
(1.3354 0.223012 -3.64684e-20)
(1.33178 0.209538 2.70341e-20)
(1.32779 0.196181 -1.80565e-20)
(1.32349 0.183154 0)
(1.31855 0.170635 -2.6527e-20)
(1.31339 0.159301 1.74583e-20)
(1.30835 0.149552 0)
(1.30414 0.140844 -4.33078e-21)
(1.30124 0.133369 8.47094e-21)
(0.585049 0.53691 4.3226e-21)
(0.622373 0.600234 -1.86374e-21)
(0.671729 0.658148 -4.15611e-21)
(0.731722 0.705616 1.75567e-22)
(0.798435 0.740275 -1.83199e-22)
(0.868589 0.763204 -8.23755e-21)
(0.936433 0.774067 1.21833e-20)
(1.00224 0.773928 0)
(1.06338 0.764496 -1.91951e-20)
(1.11653 0.747245 1.76686e-20)
(1.16366 0.723557 2.35978e-20)
(1.20434 0.695333 -1.43317e-21)
(1.23708 0.665152 0)
(1.2636 0.633778 5.44187e-20)
(1.28557 0.601643 -2.86754e-20)
(1.30271 0.570697 0)
(1.31566 0.541699 0)
(1.32578 0.51398 0)
(1.3338 0.487312 -1.48657e-20)
(1.33989 0.462272 1.60518e-20)
(1.34429 0.439185 0)
(1.3475 0.417375 1.50158e-20)
(1.34983 0.396385 0)
(1.3514 0.376142 0)
(1.35221 0.357261 3.06119e-20)
(1.35236 0.339562 -6.08107e-20)
(1.35201 0.322403 6.07347e-20)
(1.35124 0.305744 1.46871e-20)
(1.35005 0.289544 -2.99293e-20)
(1.34848 0.274257 -2.19687e-20)
(1.34657 0.259769 0)
(1.34432 0.245613 1.41907e-20)
(1.34177 0.231773 0)
(1.3389 0.218245 2.8942e-22)
(1.33573 0.205266 -2.10765e-20)
(1.3322 0.192897 1.4168e-20)
(1.3283 0.181082 0)
(1.32426 0.169872 0)
(1.32039 0.159028 -3.41882e-21)
(1.31689 0.14815 -3.61044e-21)
(0.660483 0.481869 4.77778e-21)
(0.685837 0.527083 1.41423e-21)
(0.716652 0.571516 -4.77615e-22)
(0.75447 0.612406 2.27158e-23)
(0.798927 0.646565 -5.74215e-22)
(0.849193 0.672966 0)
(0.901579 0.690117 -3.48967e-21)
(0.954935 0.698721 0)
(1.00759 0.69923 -1.02725e-20)
(1.05629 0.692461 -3.05338e-21)
(1.10172 0.679536 -1.45659e-20)
(1.14313 0.661546 1.36735e-20)
(1.17847 0.640323 -1.8709e-20)
(1.20868 0.616715 -3.91679e-20)
(1.235 0.591087 -2.13346e-20)
(1.25672 0.565046 2.15119e-20)
(1.27412 0.539571 -2.07053e-20)
(1.28843 0.514433 0)
(1.30032 0.489602 -9.90652e-21)
(1.30988 0.465753 -4.65795e-20)
(1.31732 0.443375 4.66738e-20)
(1.3232 0.421998 -1.2239e-20)
(1.32792 0.401248 0)
(1.33161 0.381088 0)
(1.33427 0.362135 3.5169e-20)
(1.33607 0.344298 -4.73183e-20)
(1.33722 0.326984 4.71389e-20)
(1.33778 0.310134 -1.77482e-22)
(1.3378 0.293708 -9.36711e-20)
(1.33732 0.278145 5.87798e-20)
(1.33641 0.26338 -2.30833e-20)
(1.33509 0.248972 -1.17006e-20)
(1.3334 0.234896 4.5862e-20)
(1.33133 0.221138 -1.70078e-20)
(1.32893 0.207902 5.81273e-21)
(1.32626 0.195255 -5.51439e-21)
(1.32332 0.18305 -5.48527e-21)
(1.3202 0.171269 0)
(1.31702 0.159865 2.74411e-21)
(1.31393 0.148798 -2.85712e-21)
(0.705465 0.44788 -2.3151e-21)
(0.723327 0.482951 -4.23197e-21)
(0.744724 0.518454 9.4888e-22)
(0.771003 0.552888 1.96123e-21)
(0.802709 0.584035 -5.47273e-22)
(0.840011 0.610815 0)
(0.88082 0.631009 1.40014e-21)
(0.924279 0.644631 1.4042e-21)
(0.96903 0.651563 0)
(1.01225 0.651693 6.19042e-21)
(1.05421 0.645936 7.77922e-21)
(1.09398 0.635055 0)
(1.12934 0.620173 -1.29856e-20)
(1.16079 0.602123 1.41965e-20)
(1.18922 0.58147 0)
(1.21358 0.559526 -2.90769e-20)
(1.23384 0.537198 8.07539e-20)
(1.25107 0.514521 9.09816e-22)
(1.26586 0.491642 -1.59316e-20)
(1.27812 0.469257 0)
(1.28799 0.447883 0)
(1.29607 0.427203 0)
(1.3028 0.406966 1.78064e-20)
(1.30832 0.387202 0)
(1.31259 0.368508 0)
(1.31579 0.350798 0)
(1.31822 0.333554 2.84061e-20)
(1.31995 0.316743 -3.76538e-20)
(1.32105 0.300349 4.65991e-20)
(1.32153 0.284785 -2.84453e-20)
(1.32146 0.269974 0)
(1.32093 0.255512 0)
(1.31997 0.241385 -9.46196e-21)
(1.31861 0.227592 2.79643e-20)
(1.31688 0.214323 -1.26348e-22)
(1.31484 0.201623 -2.28781e-20)
(1.31253 0.189302 1.38507e-20)
(1.30996 0.1773 0)
(1.30717 0.165607 0)
(1.30419 0.154243 -4.5889e-21)
(0.743147 0.421163 0)
(0.756987 0.448982 2.89357e-21)
(0.772876 0.477555 4.4629e-21)
(0.792044 0.506084 -3.29046e-21)
(0.815334 0.533113 7.38427e-23)
(0.843368 0.557932 -6.20838e-22)
(0.875149 0.578404 6.47205e-22)
(0.910145 0.594264 3.2669e-21)
(0.947516 0.604959 1.10707e-21)
(0.984952 0.609818 -8.86785e-21)
(1.02247 0.609473 -2.79697e-22)
(1.05919 0.604294 -2.1042e-20)
(1.09296 0.594838 3.22162e-20)
(1.12392 0.581857 -1.73852e-20)
(1.15269 0.565917 2.1022e-20)
(1.1781 0.548017 -1.99179e-20)
(1.19986 0.528995 0)
(1.21886 0.509066 0)
(1.23553 0.488457 0)
(1.2497 0.467844 0)
(1.26138 0.44778 -1.4716e-20)
(1.27117 0.428097 -1.40622e-20)
(1.2795 0.408639 4.2891e-20)
(1.2865 0.389476 -2.92209e-20)
(1.29209 0.371191 0)
(1.29648 0.353748 1.44934e-20)
(1.29999 0.336701 -2.23718e-20)
(1.30271 0.320032 3.02981e-20)
(1.30472 0.303737 -5.28718e-20)
(1.30599 0.288209 1.52193e-20)
(1.30664 0.27339 -3.03029e-20)
(1.30678 0.258908 3.04266e-20)
(1.30644 0.244753 -3.89911e-22)
(1.30564 0.230921 7.77218e-21)
(1.30444 0.217589 0)
(1.3029 0.204798 0)
(1.30104 0.192357 -7.49534e-21)
(1.29888 0.180206 7.52644e-21)
(1.29644 0.168363 0)
(1.29373 0.15689 -3.61872e-21)
(0.772232 0.39999 1.15079e-21)
(0.783664 0.422766 -1.53653e-21)
(0.796393 0.446277 -6.44222e-22)
(0.811353 0.470067 1.13323e-21)
(0.829342 0.493188 2.14642e-21)
(0.851076 0.515276 7.3563e-22)
(0.87618 0.534557 -6.01296e-22)
(0.904437 0.550746 -6.71341e-22)
(0.935438 0.563168 0)
(0.967425 0.570851 0)
(1.00036 0.574192 3.31433e-21)
(1.03348 0.573262 0)
(1.06486 0.568146 0)
(1.0944 0.559448 -1.37724e-20)
(1.12251 0.547689 7.1743e-21)
(1.14798 0.533561 -1.58084e-20)
(1.17035 0.517776 8.85111e-21)
(1.19031 0.500655 0)
(1.20818 0.482472 9.53921e-21)
(1.22368 0.46385 1.13103e-20)
(1.23672 0.445343 -2.25472e-20)
(1.24786 0.426904 3.4421e-20)
(1.25749 0.408462 3.69278e-22)
(1.26573 0.390126 -2.3343e-20)
(1.27247 0.372459 1.24838e-20)
(1.27788 0.355469 -2.40768e-20)
(1.28235 0.338785 -2.44121e-20)
(1.28596 0.322406 -1.19934e-20)
(1.28877 0.306344 1.27892e-20)
(1.29077 0.290978 -3.06871e-20)
(1.29207 0.276263 4.99519e-20)
(1.29281 0.261861 -6.28687e-23)
(1.29302 0.247765 -5.02496e-20)
(1.29274 0.233977 6.4537e-21)
(1.29201 0.220664 0)
(1.29089 0.207864 1.86202e-20)
(1.28942 0.195395 -6.4482e-21)
(1.2876 0.183197 0)
(1.28545 0.171301 3.10036e-21)
(1.28296 0.159774 3.39193e-21)
(0.796027 0.38242 -1.13324e-21)
(0.805829 0.401483 4.93328e-22)
(0.8165 0.421186 2.44991e-22)
(0.828757 0.441249 1.01829e-23)
(0.843277 0.46102 -9.25141e-24)
(0.860716 0.480352 -1.35853e-21)
(0.880995 0.497849 6.01315e-23)
(0.904085 0.5133 8.10919e-22)
(0.929867 0.526078 -8.46133e-22)
(0.957067 0.535137 0)
(0.98567 0.540717 1.67554e-21)
(1.0151 0.542701 -7.20001e-21)
(1.04368 0.540838 3.71593e-21)
(1.07121 0.535574 -1.45267e-20)
(1.09797 0.527344 1.75782e-20)
(1.12277 0.516558 -1.796e-20)
(1.14504 0.503787 2.02946e-20)
(1.16531 0.489392 0)
(1.18379 0.473656 -8.28409e-21)
(1.20011 0.457125 8.72812e-21)
(1.21409 0.440325 -9.09922e-21)
(1.22623 0.423305 1.81694e-20)
(1.23688 0.406061 -3.70998e-20)
(1.24613 0.388732 1.88353e-20)
(1.25382 0.37185 1.01275e-20)
(1.26014 0.355468 1.025e-20)
(1.26544 0.339288 -2.01462e-20)
(1.26984 0.323326 4.0666e-20)
(1.27338 0.307611 0)
(1.27605 0.292504 3.13817e-20)
(1.27795 0.277979 -3.08386e-20)
(1.27923 0.263734 2.08485e-20)
(1.27996 0.249767 -1.5585e-20)
(1.28015 0.236082 5.39019e-21)
(1.27985 0.222841 5.12567e-21)
(1.27911 0.210084 -2.68178e-22)
(1.27798 0.197639 -5.39862e-21)
(1.27648 0.185453 0)
(1.27461 0.173564 -2.61191e-21)
(1.27234 0.162041 2.74319e-21)
(0.815716 0.367456 0)
(0.824367 0.383707 0)
(0.833634 0.400495 -3.46746e-21)
(0.844073 0.417632 1.64702e-21)
(0.856243 0.434644 -5.23354e-22)
(0.870704 0.451505 1.73956e-21)
(0.887504 0.46712 -3.28271e-22)
(0.906706 0.481369 0)
(0.92836 0.493727 0)
(0.951556 0.5032 -2.94535e-21)
(0.976325 0.509949 -5.01068e-21)
(1.00226 0.513758 -1.39689e-22)
(1.02799 0.514177 9.69349e-21)
(1.05325 0.511509 -1.69672e-21)
(1.07825 0.506099 -6.49451e-21)
(1.10189 0.49813 0)
(1.12354 0.488024 0)
(1.1436 0.476137 0)
(1.16218 0.462736 0)
(1.17887 0.448275 -1.34479e-20)
(1.19341 0.433232 1.36068e-20)
(1.20623 0.417723 2.1649e-20)
(1.21762 0.401794 -3.01225e-20)
(1.22765 0.385601 7.86974e-21)
(1.23611 0.369638 0)
(1.24317 0.353998 -1.64017e-20)
(1.2492 0.338447 1.65242e-20)
(1.25428 0.323021 -8.74367e-21)
(1.25847 0.307762 0)
(1.26174 0.293015 -8.92654e-21)
(1.26418 0.278774 8.93058e-21)
(1.26598 0.264768 3.50431e-20)
(1.26718 0.251006 -3.52683e-20)
(1.26781 0.237497 1.7706e-20)
(1.2679 0.224394 -4.56393e-21)
(1.26752 0.211742 -2.2128e-20)
(1.26672 0.199383 8.93392e-21)
(1.26551 0.187269 4.44702e-21)
(1.2639 0.175441 -6.6867e-21)
(1.26187 0.163966 2.32512e-21)
(0.832315 0.354444 0)
(0.840099 0.368504 0)
(0.848347 0.383006 2.02487e-21)
(0.857496 0.397818 -1.84864e-21)
(0.868006 0.412579 -7.38513e-23)
(0.880346 0.427319 -8.1608e-22)
(0.894604 0.441175 5.28366e-22)
(0.910885 0.454091 -3.04351e-22)
(0.929319 0.465653 1.17091e-21)
(0.949254 0.474973 -2.1115e-21)
(0.970765 0.482171 -1.79867e-22)
(0.993585 0.487001 -5.55249e-23)
(1.01659 0.488916 3.29391e-21)
(1.03955 0.488112 5.78802e-21)
(1.06262 0.484854 7.65562e-21)
(1.0848 0.479154 -2.44045e-23)
(1.10549 0.471299 -7.75082e-21)
(1.12496 0.461616 0)
(1.14325 0.450337 -9.34748e-21)
(1.15993 0.437825 1.00902e-20)
(1.1747 0.424499 -1.14734e-20)
(1.18789 0.41051 6.08274e-21)
(1.19976 0.395939 3.86229e-22)
(1.21033 0.380948 7.00599e-21)
(1.21938 0.36599 -1.31026e-20)
(1.22704 0.351184 0)
(1.23366 0.336357 2.06659e-20)
(1.23932 0.321559 -3.51463e-20)
(1.24407 0.306845 2.86786e-20)
(1.24786 0.292543 -2.20565e-20)
(1.2508 0.278663 -1.47134e-20)
(1.25306 0.264973 1.48141e-20)
(1.25468 0.251485 1.49605e-20)
(1.25572 0.238214 -1.50341e-20)
(1.25618 0.22531 7.54962e-21)
(1.25613 0.212819 2.01228e-22)
(1.25564 0.2006 0)
(1.2547 0.18861 0)
(1.25335 0.17689 3.71721e-21)
(1.25154 0.165505 0)
(0.846494 0.342949 1.00126e-21)
(0.8536 0.355261 2.16706e-22)
(0.861073 0.367935 -2.21403e-22)
(0.869265 0.380875 5.7823e-24)
(0.878556 0.393789 0)
(0.889333 0.40674 6.93775e-22)
(0.901697 0.419029 -4.74763e-23)
(0.915761 0.430649 4.82671e-23)
(0.931687 0.441275 7.74241e-22)
(0.949 0.450138 -9.79072e-22)
(0.967801 0.45734 2.1144e-21)
(0.987924 0.462641 0)
(1.00848 0.465468 -3.15238e-21)
(1.02924 0.465939 1.29293e-21)
(1.05036 0.464257 1.06891e-20)
(1.07098 0.460318 -1.16136e-20)
(1.0905 0.454298 1.99736e-20)
(1.10911 0.446483 -6.93664e-21)
(1.12683 0.437064 8.39962e-21)
(1.14321 0.426318 -9.07088e-21)
(1.15793 0.414597 0)
(1.17123 0.402073 1.01829e-20)
(1.18334 0.388842 9.81128e-21)
(1.19424 0.375064 0)
(1.20369 0.361147 0)
(1.21179 0.347229 1.09675e-20)
(1.21887 0.333188 5.70264e-21)
(1.22499 0.319084 -5.66655e-21)
(1.23021 0.304982 1.17664e-20)
(1.23445 0.291192 1.84129e-20)
(1.23781 0.27774 -1.24543e-20)
(1.24047 0.264428 0)
(1.24249 0.251274 -1.2783e-20)
(1.24388 0.238299 1.28509e-20)
(1.24468 0.225648 6.47161e-21)
(1.24494 0.213371 -1.40729e-23)
(1.24473 0.20134 -6.54407e-21)
(1.24406 0.18952 0)
(1.24295 0.177953 -9.76796e-21)
(1.24135 0.166698 0)
(0.858747 0.332665 -1.25752e-21)
(0.865303 0.343555 1.34648e-21)
(0.872164 0.354741 1.11174e-21)
(0.879615 0.366149 -1.08711e-21)
(0.887976 0.377539 -8.5802e-22)
(0.897567 0.388982 -6.38017e-22)
(0.908486 0.399909 -3.01074e-22)
(0.920841 0.410336 -3.65504e-23)
(0.934797 0.420012 -1.09752e-22)
(0.950003 0.428278 8.85289e-22)
(0.96657 0.435228 -3.105e-21)
(0.984404 0.440644 -5.46952e-22)
(1.00279 0.443968 8.24391e-21)
(1.02156 0.445268 -6.14766e-21)
(1.04082 0.444701 -4.29752e-21)
(1.05986 0.442091 5.42183e-21)
(1.07812 0.437526 -1.05757e-20)
(1.09573 0.43125 -5.59314e-21)
(1.1127 0.423414 1.34327e-20)
(1.12857 0.414219 -1.36377e-20)
(1.14301 0.403953 0)
(1.15622 0.392792 0)
(1.16835 0.380836 -7.17493e-22)
(1.1794 0.368238 0)
(1.18908 0.355359 0)
(1.19747 0.342347 -9.95979e-21)
(1.20488 0.329122 -9.54749e-21)
(1.21136 0.315749 -9.81501e-21)
(1.21694 0.302303 9.72052e-21)
(1.22154 0.289072 -5.71388e-21)
(1.22526 0.276099 -3.44867e-22)
(1.22828 0.263215 1.08083e-20)
(1.23063 0.250443 0)
(1.23234 0.237811 1.64544e-20)
(1.23344 0.225459 -1.11591e-20)
(1.23398 0.21344 -1.1082e-20)
(1.23403 0.20164 5.65175e-21)
(1.2336 0.190031 -2.82907e-21)
(1.23271 0.178655 8.68444e-21)
(1.23131 0.167566 0)
(0.869437 0.323371 7.82972e-22)
(0.875535 0.333084 -5.40587e-22)
(0.881896 0.343039 -2.65659e-22)
(0.888756 0.353177 9.10697e-22)
(0.896383 0.363296 9.04248e-22)
(0.905047 0.373467 -1.99634e-22)
(0.914835 0.383215 4.84167e-22)
(0.925846 0.392576 4.05107e-23)
(0.938238 0.401348 -7.35331e-22)
(0.95174 0.408971 -8.13858e-22)
(0.966468 0.415535 1.2584e-21)
(0.982375 0.420847 -1.86062e-21)
(0.998888 0.424389 3.93962e-21)
(1.01586 0.426195 2.83873e-21)
(1.03342 0.426389 6.42297e-21)
(1.05094 0.424755 4.27684e-22)
(1.06793 0.42132 -4.56143e-21)
(1.08449 0.416285 1.98059e-20)
(1.10058 0.409767 -2.64491e-20)
(1.1158 0.401904 2.33744e-20)
(1.12981 0.392925 -6.19583e-21)
(1.14276 0.382999 0)
(1.15477 0.372224 -5.93532e-22)
(1.16579 0.360743 0)
(1.17555 0.348867 0)
(1.18411 0.33675 0)
(1.19173 0.324343 5.92989e-22)
(1.19845 0.311716 2.64455e-20)
(1.2043 0.298948 -2.67256e-20)
(1.20919 0.286306 -2.59009e-22)
(1.21319 0.273846 -1.86609e-20)
(1.2165 0.261425 9.37759e-21)
(1.21913 0.249072 -9.16856e-21)
(1.22112 0.236821 -1.44866e-20)
(1.22248 0.224805 -4.70723e-21)
(1.22327 0.21308 9.75931e-21)
(1.22355 0.201548 0)
(1.22334 0.190185 -4.8035e-21)
(1.22266 0.179032 -6.05093e-21)
(1.22145 0.168142 1.27125e-21)
(0.878841 0.314902 6.69644e-22)
(0.88455 0.323627 0)
(0.890491 0.332548 -1.96503e-21)
(0.896864 0.34162 7.89901e-22)
(0.903896 0.350667 7.64239e-22)
(0.911815 0.359758 -1.40217e-22)
(0.920697 0.368491 0)
(0.930631 0.376908 -6.29644e-24)
(0.94176 0.38485 3.08635e-22)
(0.953873 0.391836 -7.60672e-22)
(0.96708 0.397953 -1.23587e-21)
(0.981365 0.403037 -3.71441e-22)
(0.996266 0.406612 -3.07363e-22)
(1.01167 0.408696 0)
(1.02768 0.409388 -8.43375e-21)
(1.04378 0.408455 9.06659e-21)
(1.05955 0.405882 0)
(1.07504 0.401833 -8.0613e-21)
(1.09022 0.396395 4.6881e-21)
(1.10471 0.389656 -1.01424e-20)
(1.11818 0.381795 4.71232e-21)
(1.13075 0.372967 0)
(1.1425 0.363265 6.05723e-21)
(1.15337 0.352815 -6.3256e-21)
(1.1631 0.341887 0)
(1.1717 0.330634 -1.41055e-20)
(1.17943 0.319027 1.47366e-20)
(1.18629 0.30714 7.82154e-21)
(1.19232 0.295053 -1.51111e-20)
(1.19741 0.283014 0)
(1.20164 0.271086 2.70918e-22)
(1.20517 0.259151 -1.59357e-20)
(1.20803 0.247244 8.4854e-21)
(1.21025 0.2354 0)
(1.21183 0.223748 4.33664e-21)
(1.21283 0.212347 -4.37208e-21)
(1.21332 0.201112 4.16643e-21)
(1.2133 0.190022 4.42855e-21)
(1.21281 0.179121 8.65388e-21)
(1.21177 0.168458 4.30257e-21)
(0.887173 0.307131 0)
(0.892543 0.315016 0)
(0.898126 0.32306 6.68082e-23)
(0.904088 0.331227 -1.41426e-21)
(0.910624 0.339361 -4.90538e-23)
(0.917931 0.347528 -3.81949e-22)
(0.926071 0.355382 0)
(0.935125 0.362969 0)
(0.945219 0.370161 3.56478e-22)
(0.956184 0.376542 -3.64967e-22)
(0.968125 0.382198 2.71961e-22)
(0.981042 0.386986 -9.49011e-22)
(0.994557 0.39048 0)
(1.00858 0.392685 0)
(1.02322 0.393684 4.16751e-21)
(1.03803 0.393242 -4.94656e-21)
(1.05263 0.391316 5.95635e-22)
(1.06708 0.38804 4.22045e-21)
(1.08134 0.383477 -7.16007e-21)
(1.09507 0.377676 0)
(1.10794 0.370773 4.32695e-21)
(1.12005 0.362908 4.65051e-21)
(1.13145 0.354165 0)
(1.14208 0.344655 5.44962e-21)
(1.15167 0.334607 -1.12758e-20)
(1.16022 0.324169 0)
(1.16796 0.31333 6.44597e-21)
(1.17489 0.302162 -6.33546e-21)
(1.18101 0.290747 1.94726e-20)
(1.18624 0.27931 0)
(1.19062 0.267921 1.38685e-20)
(1.19432 0.256485 7.28131e-21)
(1.19736 0.245038 6.97382e-21)
(1.19976 0.233619 -7.28283e-21)
(1.20153 0.222352 7.34685e-21)
(1.2027 0.211297 0)
(1.20336 0.20038 -3.85797e-21)
(1.20352 0.189587 0)
(1.20319 0.178961 -3.90075e-21)
(1.2023 0.168547 -3.96619e-21)
(0.894601 0.299958 4.47919e-22)
(0.899674 0.307123 -6.47461e-22)
(0.904943 0.314414 1.6587e-21)
(0.910552 0.321803 6.39836e-22)
(0.916667 0.329154 -5.0616e-22)
(0.923457 0.336524 4.89163e-22)
(0.930978 0.343616 -1.33326e-22)
(0.939299 0.350473 1.76974e-23)
(0.948532 0.356992 -6.91116e-23)
(0.958537 0.362813 -3.07248e-22)
(0.969413 0.368015 1.27782e-22)
(0.981169 0.372479 2.12554e-21)
(0.993491 0.375822 -2.17872e-21)
(1.00631 0.378044 -4.16793e-22)
(1.01973 0.379216 -4.88499e-22)
(1.03337 0.379108 9.26614e-21)
(1.0469 0.377662 -4.78161e-21)
(1.06036 0.374986 5.4093e-21)
(1.07373 0.371125 -6.65984e-21)
(1.08668 0.366099 -1.66454e-23)
(1.09892 0.36001 -4.0158e-21)
(1.11051 0.352981 4.19717e-21)
(1.1215 0.345086 -7.12544e-23)
(1.13182 0.33642 0)
(1.14119 0.327179 0)
(1.14962 0.3175 -1.00071e-20)
(1.1573 0.307387 -5.21319e-21)
(1.16421 0.296908 -5.40852e-21)
(1.17036 0.286142 -3.73519e-22)
(1.17566 0.275297 -1.7678e-20)
(1.18014 0.264446 5.75299e-21)
(1.18396 0.253511 0)
(1.18713 0.242531 -1.27842e-20)
(1.18967 0.231547 1.25427e-20)
(1.19158 0.220677 0)
(1.1929 0.209983 6.53581e-21)
(1.19371 0.199401 -3.29286e-21)
(1.194 0.188922 -6.64155e-21)
(1.19382 0.178588 5.01104e-21)
(1.19306 0.168442 -4.98713e-21)
(0.90126 0.293306 0)
(0.906066 0.299845 0)
(0.911058 0.306484 -1.27263e-21)
(0.916356 0.313201 0)
(0.922107 0.319873 0)
(0.928456 0.326551 1.11879e-22)
(0.93545 0.332977 -1.14624e-22)
(0.94315 0.339192 -1.6667e-23)
(0.951656 0.34511 3.476e-22)
(0.960849 0.350417 1.14624e-21)
(0.97082 0.355189 1.80231e-21)
(0.981582 0.359322 1.81749e-21)
(0.992875 0.362476 -1.54389e-21)
(1.00464 0.364648 2.57169e-22)
(1.01698 0.365898 -2.89068e-21)
(1.02956 0.366009 7.57466e-21)
(1.04211 0.364914 -4.04999e-21)
(1.05465 0.3627 4.69694e-21)
(1.06716 0.3594 0)
(1.07935 0.355011 1.26045e-20)
(1.09096 0.349609 -1.27446e-20)
(1.10201 0.3433 -6.87857e-21)
(1.11255 0.336148 -1.53389e-20)
(1.1225 0.328235 -4.62753e-22)
(1.13161 0.319725 -3.51898e-22)
(1.13985 0.310747 1.81501e-20)
(1.1474 0.301312 4.85836e-21)
(1.15424 0.291484 1.44784e-20)
(1.16036 0.28134 -1.49299e-20)
(1.16567 0.271069 5.35576e-21)
(1.1702 0.260745 1.06673e-20)
(1.17409 0.250306 -1.07551e-20)
(1.17734 0.239792 0)
(1.17998 0.229246 -5.77892e-21)
(1.182 0.21878 0)
(1.18344 0.208456 1.60243e-22)
(1.18436 0.19822 -5.81126e-21)
(1.18478 0.188068 0)
(1.18472 0.178039 5.74766e-21)
(1.18407 0.168176 1.63374e-22)
(0.907257 0.287109 7.68856e-22)
(0.911824 0.293101 -1.49942e-22)
(0.916566 0.299171 1.98082e-22)
(0.921588 0.305301 -3.98583e-24)
(0.927018 0.31138 1.39507e-21)
(0.932983 0.317454 -9.62242e-23)
(0.939522 0.323296 2.94006e-23)
(0.946689 0.328944 6.74347e-23)
(0.954572 0.334325 2.27439e-22)
(0.96307 0.339166 -8.82492e-22)
(0.972263 0.343535 -1.02078e-21)
(0.982169 0.347345 0)
(0.992567 0.350291 3.63156e-21)
(1.00341 0.35237 1.11297e-22)
(1.01479 0.353634 -5.10186e-21)
(1.02643 0.35388 -3.36112e-21)
(1.03808 0.353038 3.57808e-21)
(1.04977 0.35118 4.09622e-21)
(1.06147 0.348325 -4.48902e-21)
(1.07293 0.344458 0)
(1.0839 0.339633 5.96183e-21)
(1.09441 0.333942 6.83828e-21)
(1.10448 0.327439 8.61792e-22)
(1.11403 0.320193 -2.10328e-20)
(1.12283 0.312343 -7.25538e-21)
(1.13084 0.304006 0)
(1.13822 0.295198 8.32706e-21)
(1.14493 0.28598 -1.72297e-20)
(1.15098 0.276425 9.10855e-21)
(1.15626 0.266704 -3.48471e-22)
(1.16079 0.256892 8.90128e-21)
(1.16471 0.246938 1.87385e-20)
(1.16801 0.236884 -4.73259e-21)
(1.17071 0.226774 0)
(1.1728 0.216713 -4.8927e-21)
(1.17433 0.206763 5.24676e-21)
(1.17534 0.19688 0)
(1.17586 0.187062 5.05851e-21)
(1.17589 0.177348 -6.69035e-21)
(1.17535 0.167779 4.01206e-21)
(0.912683 0.281316 0)
(0.91703 0.286827 0)
(0.921546 0.292396 -4.27711e-22)
(0.92632 0.298009 -3.49569e-24)
(0.931464 0.303568 -1.93376e-21)
(0.93709 0.30911 0)
(0.94323 0.314437 -2.16018e-22)
(0.949933 0.319583 -4.77157e-24)
(0.957275 0.324485 0)
(0.965169 0.328903 0)
(0.973688 0.3329 0)
(0.98285 0.3364 -1.37465e-21)
(0.992465 0.339132 1.28592e-21)
(1.0025 0.341093 -2.51872e-22)
(1.01303 0.342327 -2.01525e-22)
(1.02382 0.34265 -9.74229e-23)
(1.03465 0.341987 -2.48647e-22)
(1.04556 0.340399 -3.81412e-21)
(1.0565 0.337898 0)
(1.06727 0.33446 0)
(1.07763 0.33012 0)
(1.08759 0.324958 1.67362e-20)
(1.09718 0.319019 -1.08403e-20)
(1.10632 0.312362 1.27337e-20)
(1.11478 0.305103 3.93914e-22)
(1.12254 0.297349 -7.01283e-21)
(1.1297 0.289119 7.07584e-21)
(1.13626 0.280469 -7.60566e-21)
(1.14219 0.271467 1.5183e-20)
(1.14739 0.262269 -4.98627e-22)
(1.15189 0.252949 -8.49756e-21)
(1.1558 0.243466 -5.06671e-22)
(1.15911 0.233862 -3.93248e-21)
(1.16184 0.22418 8.79966e-21)
(1.16399 0.214522 1.80942e-22)
(1.16557 0.204947 -4.5068e-21)
(1.16665 0.195419 4.57209e-21)
(1.16724 0.185939 -1.38571e-20)
(1.16735 0.176546 3.36427e-21)
(1.16689 0.167278 1.16101e-21)
(0.917609 0.275884 -2.18449e-22)
(0.921756 0.280968 3.8528e-22)
(0.926063 0.286093 1.60799e-21)
(0.930612 0.29125 6.85936e-22)
(0.935498 0.296347 6.95756e-22)
(0.94082 0.30142 -1.17543e-22)
(0.946607 0.30629 2.32098e-23)
(0.952902 0.310989 -7.1576e-23)
(0.959769 0.315462 4.29601e-22)
(0.967135 0.319498 -8.55083e-22)
(0.975063 0.323153 7.42135e-22)
(0.983572 0.326361 1.82812e-22)
(0.992497 0.328883 -2.67821e-21)
(1.00181 0.330711 -3.44573e-21)
(1.01158 0.331889 2.1481e-21)
(1.02161 0.332243 4.91118e-21)
(1.03171 0.331705 3.05227e-21)
(1.04189 0.330323 -9.15864e-21)
(1.05213 0.328103 0)
(1.06225 0.325016 0)
(1.07202 0.321083 4.22632e-21)
(1.08145 0.316374 9.76688e-21)
(1.09056 0.310925 -1.01365e-20)
(1.09928 0.304788 -5.72964e-22)
(1.1074 0.298058 -5.2418e-22)
(1.11487 0.290833 -4.80873e-22)
(1.1218 0.283132 6.01427e-21)
(1.12817 0.275008 6.51658e-21)
(1.13395 0.266524 -1.4029e-20)
(1.13905 0.257821 6.58352e-21)
(1.14349 0.24897 7.35268e-21)
(1.14735 0.23994 -3.33252e-22)
(1.15065 0.230773 2.91503e-22)
(1.15338 0.22151 7.81844e-21)
(1.15555 0.212248 -3.91933e-21)
(1.15717 0.203045 -8.03317e-21)
(1.15829 0.193871 4.06012e-21)
(1.15893 0.18473 4.2317e-21)
(1.15911 0.175661 -2.33076e-22)
(1.15871 0.166699 0)
(0.922097 0.270775 1.30104e-21)
(0.926058 0.275478 -2.38923e-22)
(0.930174 0.280208 -7.91931e-22)
(0.934515 0.284959 -5.85724e-22)
(0.939166 0.289646 -6.98271e-23)
(0.944215 0.294301 1.22395e-22)
(0.949686 0.298764 2.02135e-22)
(0.955615 0.303064 1.45394e-23)
(0.962062 0.307154 0)
(0.96896 0.310843 4.59306e-22)
(0.976366 0.314186 -7.04957e-22)
(0.984298 0.317122 2.05388e-21)
(0.992612 0.319439 -3.65732e-21)
(1.00128 0.321131 1.48352e-21)
(1.01038 0.322233 3.94629e-21)
(1.01972 0.322591 -6.25408e-21)
(1.02915 0.322135 0)
(1.03867 0.320908 2.92752e-21)
(1.04826 0.318913 0)
(1.05776 0.316114 3.39535e-21)
(1.06697 0.312524 -1.19684e-20)
(1.0759 0.308202 8.0512e-21)
(1.08455 0.303181 -9.00244e-21)
(1.09285 0.297501 0)
(1.10061 0.291244 -4.94751e-21)
(1.10778 0.284497 0)
(1.11446 0.277281 -1.14394e-20)
(1.12061 0.269642 1.15416e-20)
(1.12623 0.26164 0)
(1.1312 0.253403 -1.28852e-20)
(1.13555 0.244998 -1.23683e-22)
(1.13934 0.236402 6.42952e-21)
(1.1426 0.227656 -6.75505e-21)
(1.14532 0.2188 0)
(1.14748 0.209925 0)
(1.14911 0.201088 0)
(1.15026 0.192266 1.06923e-20)
(1.15094 0.183463 -3.66448e-21)
(1.15116 0.174718 -2.09043e-22)
(1.15082 0.166063 0)
(0.926199 0.26596 -2.6656e-22)
(0.929987 0.270322 -2.13136e-22)
(0.933925 0.274697 6.53636e-22)
(0.938074 0.279084 -5.36542e-22)
(0.942509 0.283405 -8.91816e-23)
(0.94731 0.287687 3.6657e-22)
(0.952494 0.291786 -1.18496e-22)
(0.958095 0.295729 -1.44099e-22)
(0.964166 0.299473 3.245e-22)
(0.970646 0.302849 3.98008e-22)
(0.977587 0.305906 0)
(0.985005 0.308591 9.62953e-22)
(0.992773 0.310713 1.53863e-22)
(1.00087 0.312267 -1.55446e-21)
(1.00936 0.313285 2.98602e-21)
(1.01809 0.313625 0)
(1.0269 0.313222 0)
(1.03581 0.312112 1.01002e-20)
(1.04481 0.310295 5.41486e-22)
(1.05373 0.307733 -3.13675e-21)
(1.06242 0.304433 6.5996e-21)
(1.07085 0.300445 -7.15402e-21)
(1.07905 0.295796 -3.59414e-21)
(1.08694 0.29052 -8.71265e-21)
(1.09434 0.284685 1.35069e-20)
(1.10121 0.27837 9.71212e-21)
(1.10763 0.271596 -2.48109e-20)
(1.11356 0.264405 1.53207e-20)
(1.11899 0.256851 1.0966e-20)
(1.12381 0.249051 -5.63234e-21)
(1.12804 0.241068 0)
(1.13176 0.232886 5.7636e-21)
(1.13495 0.224544 0)
(1.13763 0.216081 0)
(1.13977 0.207583 6.3297e-21)
(1.1414 0.199105 -1.26165e-20)
(1.14256 0.190629 -1.29965e-20)
(1.14325 0.182161 -6.38369e-21)
(1.1435 0.173737 -5.79906e-21)
(1.1432 0.16539 -8.14087e-22)
(0.929959 0.261411 0)
(0.933585 0.265465 0)
(0.937357 0.269522 -1.21014e-21)
(0.941327 0.273582 3.73212e-23)
(0.945562 0.277574 3.63086e-22)
(0.950134 0.281521 -2.64995e-22)
(0.955057 0.285293 1.07659e-22)
(0.960361 0.288915 0)
(0.966092 0.292347 -1.97165e-22)
(0.972196 0.29544 -1.10847e-21)
(0.978719 0.298236 1.08905e-21)
(0.985675 0.300689 1.48511e-21)
(0.992954 0.302628 0)
(1.00054 0.304047 -2.35043e-21)
(1.00848 0.304975 -5.93505e-21)
(1.01664 0.305284 6.4849e-21)
(1.02489 0.304912 3.51512e-22)
(1.03325 0.30389 -1.34786e-20)
(1.0417 0.302215 5.11643e-21)
(1.05009 0.299849 -1.67324e-20)
(1.05827 0.296795 -4.45712e-22)
(1.06625 0.293095 4.23541e-22)
(1.07401 0.288771 4.53587e-22)
(1.0815 0.283852 7.75286e-21)
(1.08855 0.278396 3.85784e-22)
(1.09511 0.272472 -7.87511e-21)
(1.10126 0.266101 -4.5461e-21)
(1.10696 0.259322 -5.10898e-21)
(1.11218 0.252184 9.51025e-21)
(1.11685 0.244792 -5.17332e-21)
(1.12095 0.237209 0)
(1.12457 0.229421 -1.23984e-22)
(1.12768 0.221465 -1.61316e-20)
(1.1303 0.213381 -6.13464e-23)
(1.1324 0.205248 5.62147e-21)
(1.13402 0.19712 5.91068e-21)
(1.13517 0.188982 5.98824e-21)
(1.13587 0.180843 6.05593e-21)
(1.13614 0.172738 8.82377e-21)
(1.13587 0.164696 0)
(0.933413 0.257107 3.12402e-23)
(0.936888 0.260882 -6.16965e-22)
(0.940503 0.264651 5.60294e-22)
(0.944305 0.268416 -4.89274e-22)
(0.948355 0.272111 -2.51453e-22)
(0.952715 0.275756 0)
(0.957398 0.279233 -1.03194e-22)
(0.962431 0.282565 0)
(0.967853 0.285716 -3.62227e-22)
(0.973615 0.288552 6.96813e-22)
(0.979761 0.291109 -1.04109e-21)
(0.986301 0.293349 -1.41865e-21)
(0.993137 0.295116 -1.72868e-21)
(1.00025 0.296406 -1.28556e-22)
(1.0077 0.297244 5.07357e-21)
(1.01535 0.297512 1.07266e-22)
(1.02309 0.297155 3.26798e-22)
(1.03094 0.296198 0)
(1.03887 0.294637 9.23708e-21)
(1.04677 0.292436 -4.70727e-21)
(1.05449 0.289591 5.60064e-21)
(1.06202 0.28614 -5.64852e-21)
(1.06937 0.282101 1.87565e-20)
(1.07647 0.277499 0)
(1.08318 0.272382 0)
(1.08944 0.266812 4.65975e-22)
(1.09531 0.26081 -8.21378e-21)
(1.10077 0.25441 0)
(1.10579 0.247658 -3.62569e-22)
(1.11029 0.24065 8.85567e-21)
(1.11425 0.233442 -3.4576e-22)
(1.11775 0.226027 9.40673e-21)
(1.12077 0.21844 5.01719e-21)
(1.12332 0.21072 -9.82565e-21)
(1.12538 0.202939 -4.27447e-23)
(1.12695 0.195151 5.1301e-21)
(1.12809 0.187344 0)
(1.12879 0.179528 2.49675e-21)
(1.12906 0.171736 -2.8224e-21)
(1.12881 0.163995 -5.04832e-21)
(0.936594 0.253026 6.21923e-23)
(0.939925 0.256548 1.03426e-21)
(0.943393 0.260057 -1.31986e-22)
(0.947038 0.263554 7.31997e-22)
(0.950914 0.26698 2.50376e-22)
(0.955078 0.270351 1.22797e-22)
(0.959539 0.273563 -1.49881e-22)
(0.964321 0.276632 0)
(0.96946 0.279528 6.87727e-22)
(0.974912 0.28213 0)
(0.980714 0.28447 0)
(0.986875 0.286514 0)
(0.993309 0.288121 3.21849e-21)
(1 0.289288 0)
(1.00699 0.290036 2.4762e-22)
(1.01418 0.290259 -8.15618e-21)
(1.02145 0.289906 6.02401e-21)
(1.02883 0.288997 3.45839e-21)
(1.03629 0.287529 0)
(1.04373 0.285464 -4.28212e-21)
(1.05101 0.282799 -5.01497e-21)
(1.05812 0.279565 -3.27024e-23)
(1.06507 0.275778 -6.1665e-21)
(1.07181 0.271458 5.52539e-21)
(1.07818 0.266645 6.27532e-21)
(1.08414 0.261398 4.11474e-22)
(1.08975 0.255733 -6.92826e-21)
(1.09497 0.249682 -3.28894e-22)
(1.09978 0.243288 -3.65858e-22)
(1.10409 0.236637 0)