# p  FACE_DATA 180
#  x  y  z  p
-0.49912 -0.0178469 0.5 0.466452
-0.496703 -0.0110232 0.5 0.226329
-0.492976 -0.00470316 0.5 0.00129224
-0.488305 0.00101201 0.5 -0.164494
-0.483079 0.00619137 0.5 -0.276473
-0.477364 0.0110256 0.5 -0.357261
-0.471461 0.0154276 0.5 -0.415955
-0.465306 0.0195404 0.5 -0.460316
-0.4589 0.0234414 0.5 -0.494797
-0.452528 0.0270077 0.5 -0.51794
-0.445952 0.0304188 0.5 -0.534031
-0.439149 0.0337051 0.5 -0.545451
-0.432452 0.0367332 0.5 -0.552055
-0.42574 0.0395854 0.5 -0.556418
-0.41874 0.0423878 0.5 -0.560485
-0.411728 0.0450352 0.5 -0.563617
-0.404865 0.0474841 0.5 -0.564956
-0.397915 0.0498366 0.5 -0.565994
-0.390751 0.0521356 0.5 -0.567202
-0.383559 0.0543232 0.5 -0.567951
-0.376523 0.0563547 0.5 -0.567515
-0.369482 0.0582886 0.5 -0.566918
-0.362276 0.0601709 0.5 -0.56655
-0.354912 0.0619957 0.5 -0.566055
-0.347677 0.0636973 0.5 -0.564786
-0.340599 0.0652782 0.5 -0.562804
-0.333405 0.0668064 0.5 -0.561102
-0.326085 0.0682825 0.5 -0.559537
-0.318645 0.0697025 0.5 -0.557779
-0.31134 0.0710223 0.5 -0.555503
-0.30418 0.0722464 0.5 -0.552845
-0.296921 0.0734217 0.5 -0.550541
-0.289562 0.0745469 0.5 -0.548462
-0.28211 0.0756193 0.5 -0.546389
-0.274704 0.0766147 0.5 -0.544134
-0.267401 0.0775122 0.5 -0.540387
-0.260063 0.0783355 0.5 -0.532822
-0.252654 0.0791184 0.5 -0.524318
-0.245219 0.0798859 0.5 -0.518443
-0.2378 0.080663 0.5 -0.515449
-0.224839 0.0817289 0.5 -0.526102
-0.206269 0.0830322 0.5 -0.507922
-0.187674 0.0840951 0.5 -0.50065
-0.169064 0.084806 0.5 -0.492473
-0.150345 0.0852257 0.5 -0.481424
-0.131676 0.08537 0.5 -0.470458
-0.113021 0.0852486 0.5 -0.459928
-0.0943277 0.084875 0.5 -0.449552
-0.0756917 0.084257 0.5 -0.439184
-0.0570011 0.0834008 0.5 -0.428606
-0.0383534 0.0823192 0.5 -0.418246
-0.0197504 0.0810174 0.5 -0.40784
-0.00112107 0.0795021 0.5 -0.397292
0.0174734 0.0777822 0.5 -0.387017
0.0360496 0.0758617 0.5 -0.376496
0.0546122 0.0737509 0.5 -0.365966
0.0731526 0.0714525 0.5 -0.355634
0.0916487 0.0689774 0.5 -0.344978
0.110146 0.0663258 0.5 -0.334497
0.128625 0.0635019 0.5 -0.323908
0.147048 0.0605228 0.5 -0.313063
0.165487 0.0573791 0.5 -0.302502
0.183835 0.0540934 0.5 -0.291604
0.202198 0.0506563 0.5 -0.280631
0.220585 0.0470661 0.5 -0.269712
0.238853 0.0433596 0.5 -0.258398
0.257171 0.0395065 0.5 -0.247233
0.275342 0.0355523 0.5 -0.2357
0.293582 0.0314574 0.5 -0.223982
0.311841 0.0272353 0.5 -0.212053
0.330014 0.022917 0.5 -0.199696
0.348196 0.0184857 0.5 -0.187245
0.36633 0.0139572 0.5 -0.174215
0.384412 0.00933809 0.5 -0.160936
0.402529 0.00460539 0.5 -0.146897
0.420474 -0.00018151 0.5 -0.13249
0.438458 -0.00509393 0.5 -0.117117
0.456725 -0.0102191 0.5 -0.101205
0.474747 -0.0154967 0.5 -0.0819546
0.491852 -0.0216996 0.5 -0.0724322
-0.269191 -0.062892 0.5 0.130657
-0.275538 -0.0632599 0.5 0.130262
-0.281914 -0.0636378 0.5 0.129587
-0.288285 -0.0640136 0.5 0.128076
-0.294613 -0.0643754 0.5 0.126463
-0.300863 -0.0647111 0.5 0.125333
-0.307004 -0.0650089 0.5 0.125321
-0.313327 -0.0652771 0.5 0.126303
-0.319845 -0.0655212 0.5 0.127501
-0.326263 -0.0657323 0.5 0.128749
-0.332578 -0.0659087 0.5 0.130198
-0.338786 -0.0660487 0.5 0.13185
-0.344885 -0.0661508 0.5 0.13375
-0.351121 -0.066215 0.5 0.13631
-0.357596 -0.0662389 0.5 0.139502
-0.364053 -0.0662174 0.5 0.143079
-0.370372 -0.0661484 0.5 0.147059
-0.37655 -0.0660305 0.5 0.15143
-0.382602 -0.0658618 0.5 0.15634
-0.388925 -0.0656228 0.5 0.162764
-0.395479 -0.0653072 0.5 0.170558
-0.401845 -0.0649267 0.5 0.179057
-0.408019 -0.0644808 0.5 0.188435
-0.414058 -0.0639631 0.5 0.199172
-0.420377 -0.0633227 0.5 0.213176
-0.426881 -0.0625531 0.5 0.230292
-0.433116 -0.0616939 0.5 0.249288
-0.439078 -0.0607466 0.5 0.271015
-0.445269 -0.0596051 0.5 0.299854
-0.451674 -0.0582403 0.5 0.336559
-0.457727 -0.0567413 0.5 0.378163
-0.463645 -0.0550329 0.5 0.428243
-0.469708 -0.0529719 0.5 0.49146
-0.47554 -0.0506191 0.5 0.563031
-0.481121 -0.0478748 0.5 0.643435
-0.486533 -0.0445602 0.5 0.727581
-0.49139 -0.0406721 0.5 0.795348
-0.495497 -0.0360174 0.5 0.824857
-0.498337 -0.0305615 0.5 0.793215
-0.499668 -0.0245218 0.5 0.679904
0.493989 -0.0255671 0.5 0.0322955
0.481661 -0.0256584 0.5 0.0782488
0.468743 -0.0250493 0.5 0.112427
0.455903 -0.0243816 0.5 0.141048
0.443086 -0.0237407 0.5 0.160743
0.43032 -0.0231534 0.5 0.176554
0.417436 -0.0226209 0.5 0.188369
0.404557 -0.0221623 0.5 0.197285
0.392009 -0.0217848 0.5 0.204823
0.378964 -0.0214625 0.5 0.21048
0.366089 -0.0212219 0.5 0.214709
0.353553 -0.0210565 0.5 0.218449
0.340652 -0.0209519 0.5 0.221255
0.327676 -0.0209217 0.5 0.222952
0.31499 -0.0209615 0.5 0.224363
0.302291 -0.0210626 0.5 0.225428
0.289292 -0.0212313 0.5 0.225896
0.276404 -0.021465 0.5 0.225803
0.263762 -0.0217556 0.5 0.225562
0.251008 -0.0221051 0.5 0.225114
0.238056 -0.0225182 0.5 0.224348
0.225182 -0.0229871 0.5 0.223228
0.212496 -0.0235049 0.5 0.221902
0.199757 -0.0240769 0.5 0.220411
0.186884 -0.0247052 0.5 0.218786
0.174002 -0.0253829 0.5 0.217011
0.161252 -0.026102 0.5 0.215023
0.148534 -0.0268664 0.5 0.212894
0.135727 -0.0276797 0.5 0.210706
0.122864 -0.0285371 0.5 0.20853
0.110074 -0.0294292 0.5 0.206214
0.0973497 -0.0303577 0.5 0.203642
0.0845803 -0.0313282 0.5 0.200963
0.0717868 -0.032334 0.5 0.198358
0.0590033 -0.0333678 0.5 0.195857
0.0462363 -0.034431 0.5 0.193061
0.0334662 -0.0355272 0.5 0.190071
0.0206994 -0.0366506 0.5 0.187084
0.0079632 -0.0377921 0.5 0.184316
-0.0047917 -0.0389536 0.5 0.181535
-0.0175901 -0.0401414 0.5 0.178376
-0.0303693 -0.0413491 0.5 0.17512
-0.0430918 -0.0425653 0.5 0.172061
-0.0557889 -0.0437854 0.5 0.169295
-0.068574 -0.0450224 0.5 0.166188
-0.0814004 -0.0462753 0.5 0.162839
-0.0941401 -0.0475251 0.5 0.1596
-0.106769 -0.0487602 0.5 0.156771
-0.119516 -0.0499993 0.5 0.153922
-0.132401 -0.0512485 0.5 0.150653
-0.145178 -0.0524814 0.5 0.147433
-0.157806 -0.0536836 0.5 0.14466
-0.170519 -0.0548698 0.5 0.142176
-0.183408 -0.056051 0.5 0.139226
-0.196219 -0.0572023 0.5 0.136049
-0.208833 -0.058302 0.5 0.133193
-0.221521 -0.0593569 0.5 0.131759
-0.23434 -0.0603605 0.5 0.130989
-0.24704 -0.0613079 0.5 0.128228
-0.259692 -0.0622418 0.5 0.125914
