/*--------------------------------*- C++ -*----------------------------------*\
| =========                 |                                                 |
| \\      /  F ield         | OpenFOAM: The Open Source CFD Toolbox           |
|  \\    /   O peration     | Version:  3.0.1                                 |
|   \\  /    A nd           | Web:      www.OpenFOAM.org                      |
|    \\/     M anipulation  |                                                 |
\*---------------------------------------------------------------------------*/
FoamFile
{
    version     2.0;
    format      ascii;
    class       volScalarField;
    location    "400";
    object      nut;
}
// * * * * * * * * * * * * * * * * * * * * * * * * * * * * * * * * * * * * * //

dimensions      [0 2 -1 0 0 0 0];

internalField   nonuniform List<scalar> 
58000
(
0.000785754
0.000732592
0.000658595
0.000590321
0.000536385
0.000494272
0.000465365
0.00044193
0.000425933
0.000415984
0.000408714
0.000404356
0.000403116
0.000401631
0.000400147
0.000399462
0.000399682
0.000400481
0.000401626
0.000403163
0.000405136
0.00040733
0.000409734
0.000412129
0.00041472
0.000417178
0.000419657
0.000422115
0.000424401
0.000426649
0.000428607
0.000430373
0.000431886
0.000433077
0.000434019
0.000434164
0.000433297
0.000432022
0.000430728
0.000431108
0.00292553
0.00260627
0.00225137
0.00192916
0.00167042
0.00146557
0.0013091
0.00118425
0.00108819
0.00101663
0.000960101
0.000917187
0.000885203
0.000859277
0.000835633
0.000817089
0.000803269
0.000791275
0.000779995
0.00077078
0.000764142
0.000758458
0.000753224
0.000748149
0.000744825
0.000741838
0.000738885
0.00073591
0.00073274
0.000730297
0.000727971
0.000724338
0.000719477
0.000713652
0.000707287
0.00069962
0.000691517
0.000683967
0.000677523
0.000675254
0.00514746
0.00476445
0.00431516
0.00384344
0.00341228
0.00303809
0.00273985
0.00249449
0.00229681
0.00214336
0.00201925
0.00191752
0.00184121
0.0017803
0.00172832
0.00168818
0.00165816
0.00163328
0.00161126
0.00159378
0.00158108
0.00157022
0.00156003
0.00154991
0.00154243
0.00153457
0.00152554
0.00151553
0.00150454
0.00149501
0.00148542
0.00147531
0.00146468
0.00145321
0.00144074
0.00142578
0.0014088
0.0013915
0.00137551
0.00136719
0.00736292
0.00693934
0.00642305
0.0058779
0.00535312
0.00486203
0.00444506
0.00408656
0.00378794
0.00355007
0.00335017
0.00318352
0.00305459
0.0029495
0.00285855
0.00278634
0.00273039
0.00268339
0.00264201
0.00260842
0.00258263
0.00256021
0.00253783
0.00251501
0.00249677
0.00248011
0.00246324
0.00244587
0.00242747
0.0024106
0.00239325
0.0023746
0.00235473
0.00233372
0.00231246
0.0022884
0.00226179
0.00223451
0.00220872
0.00219118
0.00955465
0.00910995
0.00855938
0.00796914
0.00738128
0.00681955
0.00632024
0.00587165
0.00548257
0.00516222
0.00488613
0.00465068
0.00446403
0.00430916
0.00417355
0.00406381
0.00397691
0.00390279
0.00383649
0.00378103
0.00373581
0.00369553
0.00365764
0.00362087
0.00359144
0.0035637
0.00353528
0.00350605
0.0034758
0.00344935
0.00342237
0.00339353
0.0033629
0.00333062
0.00329845
0.0032633
0.0032251
0.00318591
0.00314839
0.00311932
0.0117186
0.0112613
0.0106925
0.0100736
0.00945043
0.00883957
0.00828265
0.00777048
0.00731056
0.00691999
0.00657525
0.00627428
0.00602975
0.00582333
0.00564035
0.00548903
0.00536649
0.00526087
0.00516461
0.00508212
0.00501466
0.00495476
0.00489935
0.00484488
0.00479856
0.00475623
0.00471439
0.00467259
0.00462921
0.00458927
0.00455005
0.00450986
0.00446728
0.00442242
0.00437767
0.00432977
0.00427841
0.00422576
0.00417487
0.00413231
0.0138582
0.0133932
0.0128152
0.0121807
0.0115365
0.0108934
0.0102968
0.00973451
0.00922113
0.00877517
0.00837315
0.00801299
0.00771387
0.00745723
0.0072278
0.00703359
0.00687279
0.00673142
0.00660298
0.00649241
0.00640141
0.00631895
0.00624091
0.00616633
0.00610323
0.00604482
0.00598704
0.00592913
0.00587109
0.00581705
0.00576402
0.00571023
0.00565367
0.00559448
0.00553546
0.00547326
0.00540733
0.00533987
0.00527419
0.00521655
0.0159767
0.0155066
0.0149242
0.0142819
0.0136257
0.0129627
0.0123378
0.0117416
0.0111872
0.0106938
0.0102423
0.00983348
0.00948662
0.00918336
0.00890703
0.00867064
0.00847264
0.00829683
0.00813593
0.00799612
0.00787741
0.00777047
0.00766969
0.00757398
0.00749029
0.00741359
0.00733912
0.00726432
0.00718885
0.00711946
0.0070513
0.00698213
0.00691003
0.00683515
0.00676051
0.00668278
0.00660109
0.00651767
0.00643598
0.00636193
0.0180777
0.0176042
0.0170199
0.0163739
0.015711
0.0150368
0.0143934
0.0137733
0.0131864
0.0126587
0.0121681
0.0117158
0.011326
0.0109806
0.0106624
0.0103864
0.0101532
0.00994322
0.00974917
0.00957791
0.0094314
0.00929985
0.00917502
0.00905544
0.008951
0.00885458
0.00876023
0.0086675
0.00857398
0.00848743
0.00840235
0.00831539
0.00822687
0.00813546
0.00804424
0.00794993
0.00785147
0.00775107
0.00765231
0.00756074
0.0201641
0.0196882
0.0191036
0.0184564
0.0177885
0.0171096
0.0164551
0.015819
0.015209
0.0146537
0.01413
0.0136438
0.0132183
0.0128358
0.0124796
0.0121662
0.0118964
0.0116529
0.0114271
0.0112269
0.0110526
0.010894
0.0107451
0.0106017
0.010474
0.0103572
0.0102427
0.0101302
0.0100172
0.00991198
0.00980895
0.00970406
0.00959784
0.00948888
0.00937999
0.00926807
0.00915187
0.00903358
0.00891682
0.0088068
0.0222385
0.0217608
0.0211772
0.0205309
0.019862
0.01918
0.0185181
0.0178707
0.0172445
0.0166668
0.016119
0.0156045
0.0151483
0.0147323
0.014342
0.013995
0.0136927
0.0134186
0.0131619
0.012931
0.0127288
0.0125447
0.0123696
0.0122027
0.0120521
0.0119126
0.0117775
0.0116434
0.0115104
0.0113849
0.0112638
0.0111406
0.0110162
0.0108898
0.010762
0.0106315
0.0104967
0.0103598
0.0102243
0.0100951
0.0243027
0.0238238
0.0232417
0.0225976
0.0219297
0.0212469
0.0205801
0.0199234
0.0192872
0.0186938
0.0181264
0.0175871
0.0171043
0.0166621
0.016243
0.015866
0.0155335
0.0152282
0.0149417
0.0146832
0.0144541
0.0142428
0.0140427
0.0138502
0.0136768
0.0135152
0.0133587
0.0132031
0.0130479
0.0129028
0.0127626
0.0126197
0.0124764
0.012331
0.0121842
0.0120348
0.0118811
0.0117251
0.0115704
0.0114214
0.0263586
0.0258785
0.0252983
0.0246571
0.0239914
0.0233095
0.0226408
0.0219788
0.0213346
0.0207292
0.0201466
0.0195882
0.0190835
0.0186175
0.0181725
0.0177685
0.0174088
0.017076
0.0167613
0.0164742
0.0162194
0.0159826
0.0157564
0.0155398
0.0153417
0.0151568
0.0149791
0.0148024
0.0146259
0.0144605
0.0143004
0.0141376
0.0139743
0.0138092
0.013643
0.0134744
0.0133014
0.013126
0.0129516
0.0127824
0.0284075
0.0279263
0.0273481
0.0267102
0.0260474
0.0253676
0.0246985
0.0240338
0.023384
0.0227693
0.0221745
0.0216011
0.0210783
0.0205912
0.0201221
0.0196935
0.019309
0.0189521
0.018612
0.0182987
0.0180171
0.0177562
0.0175058
0.0172652
0.0170433
0.0168348
0.0166337
0.0164363
0.0162387
0.0160527
0.0158724
0.0156894
0.0155052
0.0153207
0.0151351
0.0149471
0.0147546
0.0145594
0.0143649
0.0141752
0.0304512
0.0299681
0.0293917
0.0287574
0.0280981
0.0274211
0.0267529
0.0260871
0.0254336
0.0248117
0.0242058
0.0236214
0.0230838
0.0225779
0.0220905
0.021641
0.0212337
0.0208515
0.0204866
0.0201497
0.0198433
0.0195573
0.0192839
0.0190196
0.0187746
0.0185436
0.0183193
0.0181009
0.0178824
0.0176747
0.0174747
0.0172719
0.0170677
0.0168633
0.016658
0.0164502
0.0162378
0.0160226
0.0158077
0.0155972
0.0324864
0.0320031
0.0314294
0.0307991
0.0301437
0.0294703
0.0288038
0.0281382
0.0274827
0.0268558
0.0262422
0.0256479
0.0250976
0.024577
0.0240734
0.0236057
0.023178
0.0227736
0.0223847
0.0220225
0.0216917
0.0213833
0.0210868
0.020797
0.0205299
0.0202789
0.0200333
0.0197927
0.0195543
0.0193258
0.0191045
0.0188825
0.0186586
0.0184343
0.018209
0.0179812
0.0177488
0.0175132
0.0172778
0.0170461
0.0345156
0.0340325
0.0334618
0.0328358
0.0321848
0.0315152
0.0308512
0.0301867
0.0295305
0.0289002
0.0282809
0.0276785
0.0271161
0.0265842
0.026067
0.0255832
0.0251373
0.0247125
0.0243002
0.0239162
0.0235628
0.0232302
0.022911
0.0226002
0.0223114
0.02204
0.0217733
0.0215113
0.0212526
0.0210035
0.0207616
0.0205196
0.0202757
0.0200313
0.0197857
0.0195378
0.0192851
0.0190291
0.0187729
0.0185199
0.0365397
0.0360568
0.0354893
0.034868
0.0342217
0.0335563
0.0328951
0.0322324
0.0315764
0.0309441
0.0303208
0.0297123
0.0291409
0.0285983
0.0280688
0.0275705
0.0271082
0.026665
0.0262321
0.025826
0.0254526
0.0250984
0.0247582
0.0244258
0.0241157
0.0238238
0.0235363
0.0232533
0.0229744
0.022705
0.0224426
0.0221806
0.0219165
0.0216518
0.021386
0.0211178
0.0208447
0.0205682
0.0202911
0.0200168
0.0385588
0.0380763
0.0375122
0.0368959
0.0362548
0.0355937
0.0349357
0.0342752
0.0336202
0.0329867
0.0323607
0.0317477
0.031169
0.0306173
0.0300768
0.0295655
0.0290877
0.0286282
0.028177
0.0277512
0.0273588
0.0269834
0.0266209
0.0262693
0.0259389
0.0256267
0.0253189
0.0250156
0.0247169
0.0244274
0.0241448
0.0238628
0.0235786
0.0232936
0.0230075
0.0227191
0.0224257
0.0221286
0.0218307
0.021535
0.040573
0.0400911
0.0395305
0.0389196
0.038285
0.0376275
0.0369728
0.036315
0.0356616
0.0350279
0.0344002
0.0337837
0.0331991
0.0326395
0.0320896
0.0315663
0.0310733
0.0305994
0.0301321
0.029688
0.0292754
0.0288819
0.0284999
0.0281291
0.0277786
0.0274453
0.0271187
0.0267958
0.0264776
0.0261683
0.0258658
0.0255641
0.0252599
0.0249545
0.0246483
0.0243398
0.0240263
0.0237088
0.0233901
0.023073
0.0425821
0.0421011
0.041544
0.0409381
0.0403089
0.0396566
0.0390059
0.0383515
0.0377002
0.0370671
0.0364386
0.0358197
0.0352304
0.0346639
0.0341057
0.0335723
0.033067
0.0325778
0.0320959
0.0316353
0.0312048
0.0307931
0.0303922
0.0300028
0.029633
0.02928
0.0289342
0.028592
0.0282541
0.0279255
0.0276037
0.0272826
0.0269584
0.0266321
0.0263066
0.0259786
0.0256451
0.0253073
0.0249679
0.0246296
0.0445862
0.0441062
0.0435529
0.042952
0.0423281
0.0416811
0.041035
0.0403844
0.0397358
0.039104
0.0384759
0.0378553
0.0372622
0.0366896
0.0361239
0.0355818
0.0350673
0.0345655
0.0340677
0.0335909
0.0331444
0.0327145
0.0322953
0.0318875
0.0314994
0.0311278
0.0307635
0.0304021
0.0300439
0.0296971
0.0293566
0.0290166
0.0286732
0.0283272
0.0279821
0.0276343
0.0272809
0.0269229
0.0265628
0.0262033
0.0465848
0.0461063
0.045557
0.0449616
0.0443426
0.0437011
0.0430599
0.0424137
0.041768
0.041138
0.040512
0.0398896
0.0392946
0.0387155
0.0381428
0.0375923
0.037068
0.0365548
0.0360436
0.0355517
0.035088
0.0346428
0.0342067
0.0337804
0.0333757
0.0329866
0.0326046
0.0322248
0.0318478
0.0314826
0.0311235
0.0307648
0.0304026
0.0300377
0.0296731
0.0293057
0.0289324
0.0285541
0.0281735
0.027793
0.0485775
0.0481007
0.0475559
0.0469671
0.0463523
0.0457162
0.0450803
0.0444399
0.0437963
0.0431678
0.0425429
0.0419203
0.0413231
0.0407397
0.0401613
0.0396032
0.0390695
0.0385455
0.0380223
0.0375169
0.0370381
0.0365778
0.0361257
0.0356827
0.0352614
0.0348552
0.034456
0.0340584
0.0336634
0.0332801
0.0329027
0.0325258
0.0321452
0.0317626
0.0313782
0.030991
0.0305979
0.0301997
0.0297988
0.0293975
0.0505637
0.0500889
0.0495487
0.0489651
0.0483559
0.0477256
0.0470949
0.0464593
0.0458195
0.0451932
0.0445697
0.0439473
0.0433486
0.042762
0.0421787
0.0416137
0.0410711
0.040537
0.0400027
0.0394848
0.0389924
0.0385177
0.0380505
0.0375919
0.0371546
0.0367319
0.0363159
0.0359012
0.0354888
0.0350879
0.0346927
0.0342978
0.0338991
0.0334982
0.033095
0.0326887
0.0322762
0.0318584
0.0314375
0.0310158
0.0525427
0.0520703
0.0515359
0.0509565
0.0503529
0.0497289
0.0491041
0.0484731
0.0478375
0.047214
0.0465923
0.0459709
0.0453713
0.0447825
0.0441948
0.0436233
0.0430723
0.0425281
0.0419836
0.0414543
0.0409491
0.040461
0.0399797
0.0395062
0.0390536
0.0386151
0.0381829
0.0377517
0.0373224
0.0369046
0.036492
0.0360795
0.035663
0.0352441
0.0348225
0.0343974
0.0339661
0.033529
0.0330886
0.0326468
0.0545135
0.0540438
0.0535137
0.05294
0.0523427
0.0517257
0.0511081
0.0504812
0.04985
0.0492301
0.0486105
0.0479908
0.0473907
0.0468015
0.0462095
0.0456316
0.0450722
0.0445173
0.0439639
0.0434242
0.0429071
0.0424064
0.0419116
0.0414241
0.040957
0.0405031
0.0400554
0.0396084
0.039163
0.0387287
0.0382993
0.0378697
0.0374359
0.0369992
0.0365596
0.0361163
0.0356665
0.0352107
0.0347511
0.0342897
0.0564753
0.0560098
0.0554831
0.0549153
0.0543247
0.0537149
0.0531034
0.0524821
0.0518562
0.0512415
0.0506237
0.0500069
0.0494055
0.0488148
0.0482214
0.0476377
0.0470706
0.0465063
0.0459434
0.0453934
0.044865
0.0443523
0.043845
0.0433443
0.0428633
0.0423947
0.0419318
0.0414699
0.0410092
0.0405592
0.0401135
0.0396673
0.0392165
0.0387626
0.0383054
0.0378444
0.0373765
0.0369024
0.0364241
0.0359438
0.0584268
0.0579643
0.0574428
0.0568815
0.0562983
0.0556971
0.0550908
0.0544753
0.053855
0.0532443
0.0526296
0.0520151
0.0514143
0.0508221
0.0502266
0.0496399
0.0490663
0.0484924
0.0479202
0.0473605
0.0468216
0.0462977
0.0457785
0.0452655
0.0447713
0.0442886
0.0438101
0.0433352
0.0428603
0.0423949
0.0419334
0.0414711
0.0410039
0.0405332
0.040059
0.0395806
0.0390952
0.0386034
0.0381071
0.0376083
0.0603675
0.0599082
0.0593924
0.0588383
0.0582627
0.0576687
0.0570689
0.0564601
0.0558471
0.0552397
0.0546284
0.0540162
0.0534177
0.0528235
0.0522251
0.0516337
0.0510534
0.0504723
0.0498923
0.0493239
0.0487753
0.0482411
0.047711
0.0471864
0.04668
0.0461841
0.0456919
0.0452035
0.0447146
0.0442346
0.0437579
0.04328
0.0427969
0.04231
0.0418193
0.0413242
0.0408219
0.0403128
0.0397991
0.0392828
0.0622968
0.0618411
0.0613315
0.0607853
0.0602183
0.0596304
0.0590375
0.0584356
0.0578287
0.0572262
0.05662
0.0560093
0.0554116
0.0548181
0.0542176
0.0536201
0.0530317
0.052445
0.0518585
0.0512825
0.0507251
0.0501814
0.0496413
0.0491061
0.0485882
0.0480801
0.0475751
0.0470737
0.0465714
0.0460774
0.0455861
0.045093
0.0445944
0.044092
0.0435855
0.0430743
0.0425556
0.04203
0.0414996
0.0409666
0.0642139
0.0637621
0.0632591
0.0627219
0.0621615
0.0615811
0.0609957
0.0604024
0.0598007
0.0592032
0.0586011
0.0579933
0.0573964
0.0568018
0.0561989
0.0555983
0.0550032
0.0544105
0.0538179
0.0532351
0.0526699
0.0521176
0.0515683
0.0510233
0.0504948
0.0499753
0.0494584
0.0489447
0.0484297
0.0479223
0.0474168
0.0469089
0.0463953
0.0458782
0.0453567
0.0448301
0.0442958
0.0437544
0.0432081
0.0426594
0.066118
0.0656705
0.0651742
0.0646445
0.064092
0.0635199
0.0629426
0.0623566
0.0617621
0.0611711
0.0605726
0.0599688
0.0593729
0.0587757
0.0581696
0.0575635
0.0569647
0.0563673
0.0557695
0.0551808
0.0546086
0.0540486
0.053491
0.0529371
0.0523988
0.0518688
0.0513408
0.0508156
0.0502886
0.0497683
0.0492492
0.0487264
0.0481993
0.0476684
0.0471324
0.0465911
0.0460418
0.0454853
0.044924
0.0443608
0.068008
0.0675652
0.067077
0.0665539
0.0660097
0.0654467
0.0648786
0.064299
0.0637123
0.0631259
0.0625329
0.0619312
0.0613361
0.060739
0.06013
0.0595188
0.058916
0.0583145
0.0577124
0.0571186
0.0565404
0.0559735
0.0554084
0.0548466
0.0542993
0.0537596
0.0532213
0.0526853
0.052147
0.0516146
0.0510828
0.0505467
0.0500063
0.0494618
0.048912
0.0483565
0.0477929
0.047222
0.0466468
0.0460705
0.069883
0.0694447
0.0689635
0.0684488
0.0679138
0.067361
0.0668
0.0662278
0.0656479
0.0650671
0.0644786
0.0638809
0.0632863
0.0626876
0.0620738
0.061461
0.0608556
0.0602511
0.0596456
0.0590477
0.0584643
0.0578914
0.0573199
0.0567508
0.0561955
0.0556468
0.0550989
0.0545529
0.054004
0.0534604
0.0529167
0.0523681
0.0518151
0.0512576
0.0506946
0.0501255
0.0495483
0.0489641
0.0483759
0.0477883
0.0717423
0.0713084
0.0708343
0.0703286
0.0698037
0.069259
0.0687066
0.0681436
0.0675698
0.0669956
0.0664107
0.065814
0.0652191
0.0646174
0.0640033
0.0633898
0.0627827
0.0621762
0.0615683
0.0609672
0.0603795
0.0598016
0.0592243
0.058649
0.0580863
0.0575295
0.0569729
0.0564175
0.0558587
0.0553045
0.0547497
0.0541897
0.0536247
0.053055
0.0524794
0.0518975
0.0513075
0.0507107
0.0501109
0.0495138
0.0735852
0.0731557
0.0726883
0.0721925
0.0716758
0.0711405
0.0705982
0.0700426
0.0694769
0.0689076
0.0683251
0.0677314
0.0671362
0.0665325
0.0659182
0.0653045
0.0646967
0.0640891
0.0634797
0.0628763
0.0622853
0.0617032
0.0611211
0.0605402
0.0599711
0.0594069
0.0588422
0.0582782
0.0577101
0.0571462
0.0565811
0.0560104
0.0554342
0.054853
0.0542655
0.0536716
0.0530695
0.0524612
0.0518513
0.0512469
0.0754109
0.0749855
0.0745244
0.074037
0.0735298
0.0730052
0.0724711
0.0719247
0.0713654
0.0707997
0.0702214
0.0696292
0.0690322
0.0684301
0.0678172
0.0672044
0.0665969
0.0659891
0.0653791
0.0647744
0.064181
0.0635956
0.0630095
0.0624238
0.061849
0.0612781
0.0607062
0.0601341
0.0595569
0.0589844
0.05841
0.0578293
0.0572428
0.0566509
0.0560523
0.055447
0.0548338
0.054215
0.0535965
0.0529873
0.0772187
0.0767973
0.0763421
0.0758624
0.0753654
0.0748496
0.0743256
0.0737868
0.0732326
0.0726719
0.0720964
0.0715042
0.0709099
0.0703104
0.0696999
0.0690891
0.0684828
0.0678756
0.0672659
0.0666608
0.0660661
0.0654781
0.0648887
0.064299
0.063719
0.0631423
0.0625639
0.0619846
0.0613996
0.0608188
0.0602356
0.0596458
0.0590498
0.0584478
0.0578388
0.0572229
0.0565994
0.0559713
0.0553458
0.0547347
0.0790079
0.0785905
0.0781407
0.0776678
0.0771792
0.0766737
0.0761584
0.0756263
0.0750794
0.0745212
0.0739475
0.0733598
0.0727693
0.0721731
0.071566
0.0709579
0.0703536
0.0697479
0.0691394
0.0685349
0.06794
0.06735
0.0667578
0.0661648
0.0655805
0.0649986
0.0644144
0.0638287
0.0632367
0.0626483
0.0620571
0.0614589
0.0608544
0.0602431
0.0596242
0.0589984
0.0583654
0.0577293
0.0570986
0.0564887
0.080778
0.0803645
0.0799199
0.0794533
0.0789717
0.0784741
0.0779669
0.077444
0.076904
0.0763492
0.0757795
0.0751964
0.0746103
0.0740182
0.0734152
0.0728105
0.0722089
0.0716055
0.0709988
0.0703958
0.0698028
0.0692106
0.068616
0.0680203
0.0674324
0.0668462
0.0662568
0.0656654
0.0650672
0.064472
0.0638733
0.0632678
0.0626566
0.0620357
0.0614074
0.0607724
0.060131
0.059488
0.0588542
0.0582488
0.082528
0.0821186
0.0816793
0.0812186
0.0807435
0.0802529
0.0797528
0.0792373
0.0787044
0.0781554
0.0775912
0.0770137
0.0764326
0.0758453
0.0752469
0.0746464
0.0740481
0.0734476
0.0728434
0.0722423
0.0716503
0.0710577
0.0704621
0.0698646
0.069274
0.068684
0.0680903
0.0674938
0.06689
0.0662886
0.0656833
0.0650708
0.0644524
0.0638236
0.063187
0.0625438
0.061895
0.0612466
0.0606117
0.0600145
0.0842573
0.0838521
0.0834181
0.0829635
0.0824947
0.0820108
0.0815174
0.0810087
0.0804827
0.0799404
0.0793826
0.0788112
0.0782359
0.0776539
0.0770607
0.076465
0.0758707
0.0752736
0.0746726
0.0740739
0.0734832
0.0728911
0.0722953
0.071697
0.0711043
0.0705112
0.0699137
0.0693127
0.068704
0.0680971
0.0674859
0.0668671
0.066242
0.0656062
0.0649622
0.0643118
0.0636566
0.0630041
0.0623702
0.061785
0.0859651
0.0855643
0.0851358
0.0846873
0.0842248
0.0837476
0.0832608
0.0827589
0.0822399
0.0817044
0.0811534
0.0805888
0.0800197
0.0794436
0.0788561
0.0782656
0.0776759
0.0770829
0.0764857
0.0758901
0.0753013
0.0747102
0.074115
0.073517
0.0729227
0.072327
0.0717261
0.071121
0.0705081
0.0698965
0.0692802
0.0686558
0.0680247
0.0673826
0.0667321
0.0660753
0.0654148
0.0647596
0.0641288
0.0635593
0.0876505
0.0872545
0.0868316
0.0863893
0.0859333
0.0854628
0.0849827
0.0844877
0.0839758
0.0834474
0.0829035
0.0823461
0.0817836
0.0812137
0.0806325
0.0800477
0.079463
0.0788748
0.0782821
0.0776906
0.0771039
0.0765143
0.0759203
0.0753243
0.074728
0.07413
0.0735267
0.0729169
0.0723012
0.071686
0.0710652
0.0704361
0.0697998
0.0691521
0.0684959
0.0678336
0.0671687
0.066512
0.0658863
0.0653363
0.0893129
0.0889217
0.0885047
0.0880688
0.0876195
0.0871559
0.0866826
0.0861947
0.08569
0.0851689
0.0846325
0.0840824
0.0835269
0.0829637
0.0823891
0.0818104
0.0812313
0.0806484
0.0800609
0.0794754
0.0788902
0.0783021
0.0777096
0.0771147
0.0765181
0.0759191
0.075315
0.0747016
0.074083
0.0734646
0.0728403
0.0722072
0.0715665
0.070914
0.0702527
0.0695856
0.0689172
0.0682602
0.0676415
0.0671145
0.0909513
0.0905653
0.0901543
0.0897251
0.0892826
0.0888261
0.0883599
0.0878791
0.0873819
0.0868684
0.0863396
0.0857973
0.085249
0.0846928
0.0841252
0.0835532
0.0829801
0.0824029
0.0818208
0.0812401
0.0806583
0.0800726
0.0794821
0.0788886
0.0782924
0.0776926
0.077086
0.0764721
0.075852
0.0752313
0.0746044
0.0739686
0.073324
0.0726672
0.0720015
0.0713303
0.0706592
0.070003
0.0693931
0.0688923
0.0925651
0.0921845
0.0917798
0.0913574
0.0909219
0.0904727
0.0900137
0.0895404
0.0890509
0.0885452
0.0880243
0.0874899
0.0869492
0.0864004
0.0858402
0.0852751
0.0847086
0.0841376
0.0835615
0.0829856
0.0824076
0.0818251
0.0812372
0.0806455
0.0800501
0.0794503
0.0788431
0.0782286
0.0776075
0.0769853
0.0763567
0.07572
0.0750713
0.0744106
0.0737411
0.0730666
0.0723936
0.0717392
0.0711396
0.0706679
0.0941536
0.0937786
0.0933804
0.092965
0.0925367
0.092095
0.0916435
0.0911779
0.0906962
0.0901986
0.0896858
0.0891596
0.0886269
0.0880857
0.0875332
0.0869756
0.0864161
0.085852
0.0852826
0.0847115
0.0841375
0.0835587
0.0829743
0.0823847
0.0817905
0.0811913
0.0805843
0.0799698
0.0793485
0.0787255
0.0780956
0.0774573
0.0768062
0.0761427
0.0754703
0.0747933
0.0741193
0.0734676
0.0728795
0.0724393
0.0957161
0.095347
0.0949554
0.0945472
0.0941263
0.0936922
0.0932484
0.0927907
0.0923173
0.0918279
0.0913235
0.0908058
0.0902811
0.089748
0.0892035
0.0886537
0.0881018
0.0875453
0.0869841
0.0864172
0.0858471
0.0852724
0.0846933
0.0841052
0.0835124
0.0829144
0.0823084
0.0816948
0.0810742
0.080451
0.0798202
0.0791807
0.078528
0.0778625
0.0771881
0.0765094
0.075835
0.0751868
0.0746113
0.0742045
0.0972521
0.096889
0.0965043
0.0961033
0.09569
0.0952638
0.0948279
0.0943783
0.0939133
0.0934324
0.0929367
0.0924276
0.0919114
0.0913864
0.0908503
0.0903088
0.0897649
0.0892164
0.088662
0.0881004
0.087535
0.0869646
0.0863896
0.0858047
0.0852144
0.0846182
0.0840142
0.0834025
0.0827838
0.082161
0.0815298
0.0808895
0.0802359
0.0795693
0.0788936
0.0782138
0.0775398
0.0768957
0.0763335
0.0759614
0.0987609
0.0984041
0.0980263
0.0976329
0.0972273
0.0968091
0.0963812
0.09594
0.0954837
0.0950116
0.0945247
0.0940245
0.0935168
0.0930004
0.092473
0.09194
0.0914046
0.0908657
0.0903169
0.0897607
0.0892004
0.0886346
0.0880638
0.0874827
0.0868956
0.0863015
0.0857007
0.0850922
0.0844774
0.0838546
0.0832229
0.0825828
0.0819291
0.0812621
0.0805858
0.0799058
0.0792327
0.0785931
0.0780445
0.0777079
0.100242
0.0998917
0.0995211
0.0991352
0.0987375
0.0983274
0.0979078
0.0974752
0.0970279
0.096565
0.096087
0.0955957
0.0950969
0.0945892
0.0940708
0.0935467
0.0930199
0.0924891
0.0919471
0.0913973
0.0908426
0.0902817
0.089715
0.0891386
0.0885557
0.0879652
0.0873677
0.086763
0.0861509
0.0855298
0.0848992
0.0842599
0.0836068
0.0829402
0.082264
0.0815842
0.0809125
0.0802777
0.079743
0.079442
0.101695
0.101351
0.100988
0.10061
0.10022
0.0998184
0.0994072
0.0989833
0.0985453
0.0980923
0.0976231
0.0971407
0.0966508
0.0961522
0.0956431
0.0951284
0.0946107
0.0940875
0.0935527
0.0930096
0.0924611
0.0919056
0.0913423
0.0907719
0.0901941
0.0896083
0.0890155
0.0884148
0.0878055
0.0871866
0.0865578
0.08592
0.0852682
0.0846026
0.0839272
0.0832482
0.0825783
0.0819486
0.0814274
0.0811618
0.10312
0.102783
0.102427
0.102057
0.101675
0.101281
0.100879
0.100464
0.100035
0.0995934
0.0991322
0.0986587
0.0981779
0.0976887
0.0971893
0.0966845
0.0961774
0.0956607
0.0951329
0.094597
0.0940554
0.093506
0.0929481
0.092383
0.0918101
0.0912297
0.0906439
0.0900473
0.0894403
0.0888238
0.0881977
0.0875623
0.0869124
0.0862486
0.0855746
0.0848969
0.0842292
0.0836045
0.0830966
0.0828655
0.104516
0.104185
0.103837
0.103475
0.103101
0.102716
0.102322
0.101916
0.101497
0.101065
0.100613
0.100149
0.0996777
0.0991982
0.0987089
0.0982143
0.097716
0.097207
0.0966869
0.096159
0.0956254
0.0950825
0.0945304
0.0939707
0.0934023
0.0928281
0.0922482
0.0916566
0.091053
0.0904402
0.0898181
0.089186
0.0885389
0.0878773
0.0872052
0.0865294
0.0858641
0.0852444
0.0847492
0.0845513
0.105883
0.105559
0.105218
0.104864
0.104499
0.104122
0.103737
0.103339
0.102929
0.102507
0.102065
0.101611
0.10115
0.10068
0.100201
0.0997182
0.0992272
0.098726
0.0982142
0.0976948
0.0971711
0.0966341
0.096088
0.0955343
0.0949717
0.0944035
0.0938294
0.0932432
0.0926446
0.0920365
0.0914191
0.0907906
0.0901466
0.0894878
0.0888183
0.0881447
0.0874822
0.0868674
0.086384
0.0862179
0.10722
0.106904
0.106571
0.106225
0.105868
0.1055
0.105123
0.104734
0.104334
0.10392
0.103488
0.103044
0.102593
0.102135
0.101666
0.101193
0.10071
0.100217
0.099714
0.0992036
0.0986884
0.098159
0.0976199
0.0970726
0.0965168
0.0959551
0.0953873
0.0948071
0.0942141
0.0936115
0.0930008
0.0923755
0.0917348
0.0910792
0.0904127
0.0897419
0.0890824
0.0884724
0.0880001
0.0878638
0.108528
0.108219
0.107894
0.107556
0.107207
0.106848
0.10648
0.1061
0.105709
0.105305
0.104883
0.104449
0.104009
0.103561
0.103104
0.102638
0.102164
0.10168
0.101186
0.100685
0.100179
0.0996572
0.0991255
0.0985845
0.0980368
0.0974826
0.0969216
0.0963477
0.0957608
0.0951641
0.0945589
0.0939384
0.093302
0.0926504
0.0919875
0.09132
0.0906638
0.0900585
0.0895963
0.0894879
0.109806
0.109504
0.109187
0.108857
0.108517
0.108167
0.107807
0.107437
0.107055
0.106661
0.106249
0.105825
0.105395
0.104959
0.104511
0.104054
0.103588
0.103114
0.10263
0.102141
0.101642
0.101128
0.100605
0.100072
0.0995323
0.0989859
0.0984318
0.0978645
0.097284
0.0966935
0.0960941
0.0954789
0.0948475
0.0942006
0.0935419
0.0928782
0.0922257
0.0916249
0.0911719
0.0910892
0.111055
0.11076
0.110451
0.11013
0.109798
0.109456
0.109106
0.108745
0.108372
0.107987
0.107586
0.107172
0.106752
0.106326
0.105887
0.10544
0.104984
0.104519
0.104046
0.103566
0.103076
0.102572
0.102057
0.101533
0.101003
0.100465
0.0999175
0.0993567
0.0987829
0.0981994
0.097606
0.0969964
0.0963705
0.0957288
0.095075
0.0944158
0.0937672
0.0931708
0.0927261
0.0926669
0.112274
0.111987
0.111685
0.111372
0.111049
0.110716
0.110375
0.110023
0.10966
0.109285
0.108894
0.10849
0.108079
0.107662
0.107233
0.106796
0.10635
0.105896
0.105434
0.104963
0.104481
0.103988
0.103482
0.102968
0.102448
0.101919
0.101377
0.100823
0.100257
0.0996817
0.0990939
0.0984902
0.0978703
0.0972345
0.0965862
0.0959319
0.0952878
0.0946957
0.0942583
0.0942204
0.113463
0.113184
0.11289
0.112585
0.112271
0.111947
0.111614
0.111271
0.110918
0.110554
0.110173
0.109779
0.109377
0.108967
0.10855
0.108123
0.107687
0.107243
0.106791
0.106329
0.105858
0.105374
0.104879
0.104376
0.103864
0.103343
0.102809
0.102262
0.101703
0.101136
0.100556
0.0999592
0.0993462
0.0987171
0.098075
0.0974262
0.0967868
0.096199
0.0957681
0.095749
0.114623
0.114351
0.114065
0.113769
0.113463
0.113148
0.112824
0.11249
0.112147
0.111792
0.111424
0.111039
0.110646
0.110246
0.109838
0.109421
0.108995
0.10856
0.108119
0.107667
0.107204
0.106731
0.106246
0.105754
0.105251
0.104738
0.104212
0.103674
0.103123
0.102565
0.101992
0.101403
0.100798
0.100176
0.0995408
0.0988981
0.0982639
0.0976804
0.0972549
0.0972524
0.115753
0.115489
0.115211
0.114923
0.114626
0.114319
0.114004
0.11368
0.113346
0.113002
0.112644
0.112269
0.111886
0.111496
0.111098
0.110691
0.110275
0.109849
0.109417
0.108974
0.108523
0.10806
0.107586
0.107103
0.106609
0.106105
0.105588
0.105058
0.104516
0.103967
0.103403
0.102822
0.102225
0.101611
0.100983
0.100347
0.0997187
0.0991394
0.0987186
0.0987302
0.116854
0.116597
0.116328
0.116048
0.115759
0.115461
0.115155
0.11484
0.114516
0.114181
0.113834
0.11347
0.113097
0.112717
0.112329
0.111932
0.111525
0.11111
0.110685
0.110254
0.109812
0.10936
0.108896
0.108423
0.107939
0.107444
0.106936
0.106416
0.105883
0.105343
0.104788
0.104216
0.103628
0.103022
0.102403
0.101774
0.101151
0.100576
0.100159
0.100182
0.117926
0.117677
0.117415
0.117144
0.116864
0.116574
0.116277
0.115972
0.115656
0.115332
0.114994
0.114641
0.114279
0.113908
0.113531
0.113144
0.112747
0.112342
0.111926
0.111505
0.111074
0.110632
0.110178
0.109715
0.109241
0.108755
0.108257
0.107747
0.107224
0.106693
0.106148
0.105585
0.105006
0.10441
0.103798
0.103177
0.10256
0.10199
0.101576
0.101608
0.118969
0.118728
0.118474
0.118211
0.117939
0.117659
0.117371
0.117074
0.116768
0.116453
0.116126
0.115784
0.115432
0.115072
0.114703
0.114327
0.113941
0.113545
0.11314
0.112728
0.112307
0.111875
0.111432
0.110978
0.110514
0.110039
0.109552
0.109051
0.108539
0.108018
0.107482
0.10693
0.10636
0.105773
0.10517
0.104557
0.103947
0.10338
0.102969
0.103008
0.119984
0.11975
0.119504
0.119249
0.118986
0.118714
0.118435
0.118147
0.117851
0.117546
0.11723
0.116899
0.116557
0.116206
0.115847
0.115481
0.115106
0.114721
0.114326
0.113922
0.113512
0.113091
0.112659
0.112215
0.111761
0.111296
0.110819
0.110329
0.109828
0.109318
0.108792
0.108249
0.107689
0.107111
0.106518
0.105913
0.10531
0.104748
0.104338
0.104381
0.120971
0.120744
0.120506
0.120259
0.120005
0.119742
0.119471
0.119193
0.118906
0.11861
0.118305
0.117986
0.117654
0.117313
0.116963
0.116608
0.116243
0.115869
0.115484
0.115091
0.114691
0.11428
0.113858
0.113425
0.112981
0.112526
0.112059
0.111581
0.111093
0.110592
0.110076
0.109544
0.108993
0.108426
0.107842
0.107245
0.10665
0.106092
0.105683
0.105729
0.12193
0.12171
0.12148
0.121242
0.120995
0.120741
0.120479
0.12021
0.119932
0.119646
0.119351
0.119043
0.118722
0.118391
0.118052
0.117707
0.117352
0.116988
0.116614
0.116231
0.115841
0.115441
0.11503
0.114607
0.114174
0.11373
0.113274
0.112807
0.112331
0.111841
0.111335
0.110813
0.110273
0.109715
0.109141
0.108554
0.107966
0.107413
0.107005
0.107051
0.122861
0.122649
0.122427
0.122196
0.121958
0.121713
0.12146
0.121199
0.120931
0.120654
0.120369
0.120072
0.119762
0.119442
0.119113
0.118777
0.118434
0.11808
0.117717
0.117345
0.116964
0.116575
0.116175
0.115763
0.115341
0.114907
0.114463
0.114008
0.113542
0.113063
0.112568
0.112056
0.111527
0.11098
0.110416
0.109838
0.109258
0.10871
0.108302
0.108346
0.123765
0.12356
0.123346
0.123124
0.122894
0.122657
0.122413
0.122161
0.121902
0.121635
0.121359
0.121074
0.120775
0.120466
0.120146
0.11982
0.119487
0.119145
0.118793
0.118431
0.118061
0.117682
0.117293
0.116892
0.116481
0.116059
0.115626
0.115184
0.114729
0.11426
0.113775
0.113274
0.112756
0.11222
0.111666
0.111098
0.110526
0.109984
0.109576
0.109616
0.124643
0.124446
0.124239
0.124025
0.123803
0.123575
0.123339
0.123097
0.122846
0.122589
0.122323
0.122048
0.121762
0.121462
0.121153
0.120837
0.120514
0.120183
0.119841
0.119491
0.119131
0.118762
0.118384
0.117994
0.117594
0.117184
0.116762
0.116332
0.115888
0.11543
0.114957
0.114467
0.11396
0.113435
0.112892
0.112334
0.111771
0.111234
0.110825
0.110859
0.125495
0.125305
0.125106
0.124899
0.124686
0.124466
0.124239
0.124006