/*--------------------------------*- C++ -*----------------------------------*\
| =========                 |                                                 |
| \\      /  F ield         | OpenFOAM: The Open Source CFD Toolbox           |
|  \\    /   O peration     | Version:  3.0.1                                 |
|   \\  /    A nd           | Web:      www.OpenFOAM.org                      |
|    \\/     M anipulation  |                                                 |
\*---------------------------------------------------------------------------*/
FoamFile
{
    version     2.0;
    format      ascii;
    class       volScalarField;
    location    "400";
    object      p;
}
// * * * * * * * * * * * * * * * * * * * * * * * * * * * * * * * * * * * * * //

dimensions      [0 2 -2 0 0 0 0];

internalField   nonuniform List<scalar> 
58000
(
-0.131012
-0.416318
-0.630526
-0.751931
-0.821473
-0.870546
-0.902405
-0.9214
-0.930923
-0.93104
-0.925363
-0.915669
-0.901754
-0.88595
-0.870519
-0.856032
-0.842126
-0.829403
-0.817823
-0.806878
-0.796036
-0.785943
-0.776571
-0.767478
-0.758184
-0.748847
-0.740067
-0.731607
-0.723122
-0.714411
-0.70569
-0.697412
-0.689394
-0.681366
-0.673141
-0.663818
-0.65145
-0.638619
-0.628443
-0.620427
0.192906
0.0612621
-0.0850582
-0.228453
-0.350981
-0.456152
-0.544735
-0.623548
-0.686651
-0.733874
-0.769077
-0.792094
-0.804602
-0.81028
-0.810012
-0.805218
-0.798192
-0.789995
-0.781048
-0.771781
-0.762576
-0.753575
-0.744576
-0.735625
-0.726709
-0.718184
-0.709716
-0.701238
-0.692729
-0.684218
-0.676053
-0.667942
-0.659796
-0.651534
-0.643187
-0.634724
-0.625415
-0.616042
-0.608527
-0.603848
0.12999
0.0326904
-0.0677553
-0.171227
-0.267796
-0.35705
-0.437049
-0.507071
-0.568995
-0.619025
-0.659371
-0.69095
-0.712969
-0.727528
-0.736566
-0.740566
-0.74081
-0.738637
-0.734831
-0.729877
-0.724185
-0.717993
-0.711408
-0.704587
-0.697658
-0.690683
-0.683514
-0.676227
-0.668856
-0.661518
-0.65421
-0.646779
-0.639265
-0.631651
-0.623998
-0.616301
-0.608339
-0.600316
-0.592841
-0.585822
0.148858
0.0848043
0.0140454
-0.0652091
-0.146849
-0.228043
-0.304424
-0.374918
-0.439584
-0.49496
-0.542783
-0.583279
-0.614696
-0.638553
-0.65689
-0.669488
-0.677018
-0.681075
-0.682623
-0.682073
-0.679877
-0.676536
-0.672372
-0.667562
-0.662278
-0.656661
-0.650705
-0.644477
-0.637999
-0.631408
-0.624773
-0.617969
-0.611015
-0.603901
-0.596708
-0.589542
-0.582336
-0.575103
-0.568046
-0.561197
0.129551
0.0825883
0.0323275
-0.0253912
-0.0877865
-0.153583
-0.219605
-0.283157
-0.344455
-0.399332
-0.448652
-0.492562
-0.52873
-0.557885
-0.582057
-0.600666
-0.61382
-0.623098
-0.629473
-0.63319
-0.634595
-0.634332
-0.632891
-0.630472
-0.627244
-0.623327
-0.618886
-0.61402
-0.608766
-0.603276
-0.597566
-0.591605
-0.585432
-0.579053
-0.572571
-0.566059
-0.559491
-0.552841
-0.546147
-0.539386
0.119235
0.0824595
0.0437213
-0.00072216
-0.0494764
-0.10233
-0.157679
-0.212834
-0.268234
-0.319837
-0.367912
-0.412412
-0.450775
-0.483139
-0.511274
-0.534294
-0.551883
-0.565503
-0.576045
-0.583586
-0.588342
-0.591035
-0.592252
-0.592188
-0.590979
-0.58877
-0.585859
-0.582369
-0.578339
-0.573909
-0.569116
-0.563996
-0.558596
-0.552927
-0.547085
-0.541151
-0.535128
-0.528973
-0.522678
-0.516251
0.107493
0.077709
0.0468877
0.0116706
-0.0271001
-0.0696732
-0.115541
-0.162291
-0.210827
-0.257541
-0.302339
-0.345182
-0.383529
-0.417012
-0.447152
-0.472897
-0.493561
-0.510429
-0.524278
-0.53503
-0.542741
-0.548129
-0.551836
-0.554037
-0.554829
-0.554347
-0.553
-0.550926
-0.548172
-0.54487
-0.541056
-0.536835
-0.53226
-0.527347
-0.522194
-0.516873
-0.511404
-0.50575
-0.499879
-0.493813
0.0974136
0.0724114
0.0469294
0.0180522
-0.0136109
-0.0484695
-0.0866474
-0.126072
-0.168
-0.209396
-0.25001
-0.289901
-0.326744
-0.359819
-0.390424
-0.417462
-0.43997
-0.459026
-0.475282
-0.488525
-0.498655
-0.50634
-0.512235
-0.516477
-0.519121
-0.520271
-0.520422
-0.519719
-0.518209
-0.516015
-0.513174
-0.509847
-0.506092
-0.501931
-0.497456
-0.492737
-0.487814
-0.482656
-0.477225
-0.471571
0.0884202
0.0669545
0.0453345
0.0210197
-0.00547689
-0.0345806
-0.0667299
-0.100136
-0.136245
-0.172575
-0.208837
-0.245214
-0.279691
-0.31135
-0.341308
-0.368521
-0.391838
-0.412135
-0.42994
-0.44495
-0.456927
-0.466454
-0.474167
-0.480155
-0.484436
-0.487067
-0.488601
-0.489178
-0.488845
-0.487714
-0.485818
-0.483362
-0.48041
-0.476987
-0.473181
-0.469058
-0.464677
-0.460014
-0.45503
-0.4498
0.0805081
0.0617318
0.042999
0.0220797
-0.000567603
-0.0253335
-0.0527883
-0.0813697
-0.112585
-0.14441
-0.176572
-0.209362
-0.241098
-0.270783
-0.299386
-0.325972
-0.349301
-0.370065
-0.388687
-0.404807
-0.418078
-0.428981
-0.438115
-0.445517
-0.451178
-0.455093
-0.457848
-0.459576
-0.460315
-0.460169
-0.459157
-0.457524
-0.455336
-0.452617
-0.449454
-0.445906
-0.44205
-0.437869
-0.433327
-0.428523
0.0735279
0.0568669
0.0403676
0.0220566
0.00235453
-0.0190812
-0.0428582
-0.0675921
-0.0947677
-0.122726
-0.151226
-0.180633
-0.20957
-0.237041
-0.263901
-0.289349
-0.312127
-0.33278
-0.351637
-0.368312
-0.382383
-0.39423
-0.404401
-0.412887
-0.419653
-0.424635
-0.428429
-0.431155
-0.432839
-0.433576
-0.433371
-0.432497
-0.431015
-0.428954
-0.426394
-0.423392
-0.420036
-0.416319
-0.412204
-0.407817
0.067357
0.052402
0.0376771
0.0214252
0.00403534
-0.0147891
-0.0356473
-0.0573008
-0.0811635
-0.105856
-0.131174
-0.157522
-0.183786
-0.209019
-0.233981
-0.258003
-0.279867
-0.299998
-0.318653
-0.335445
-0.349906
-0.362319
-0.373184
-0.382444
-0.390051
-0.395879
-0.400522
-0.404082
-0.406572
-0.408081
-0.408593
-0.408398
-0.407557
-0.406095
-0.404091
-0.401596
-0.398708
-0.395427
-0.391717
-0.387729
0.061884
0.0483349
0.0350535
0.0204655
0.00493199
-0.0118029
-0.0303093
-0.0494729
-0.0706124
-0.092563
-0.11515
-0.138798
-0.162609
-0.1857
-0.208753
-0.231221
-0.251959
-0.271302
-0.289453
-0.306036
-0.320559
-0.333228
-0.344489
-0.354253
-0.362457
-0.368926
-0.374234
-0.378465
-0.381622
-0.383783
-0.384914
-0.385315
-0.38504
-0.384114
-0.382612
-0.38058
-0.378123
-0.375245
-0.371914
-0.368302
0.0570133
0.0446439
0.0325603
0.0193445
0.00533161
-0.0097002
-0.0262818
-0.0434062
-0.0622903
-0.0819365
-0.102194
-0.123487
-0.14509
-0.166195
-0.187415
-0.208314
-0.22783
-0.24623
-0.263675
-0.279816
-0.294158
-0.306839
-0.318255
-0.32829
-0.336879
-0.343802
-0.349606
-0.354356
-0.358044
-0.360741
-0.362393
-0.363301
-0.363517
-0.363061
-0.362006
-0.36039
-0.358322
-0.355811
-0.352828
-0.349564
0.0526636
0.0413004
0.0302276
0.0181634
0.00541796
-0.00820121
-0.0231835
-0.038616
-0.0556139
-0.0733136
-0.0915836
-0.110834
-0.130474
-0.14977
-0.169281
-0.188658
-0.206931
-0.224315
-0.240938
-0.256482
-0.270465
-0.282972
-0.294354
-0.304474
-0.313265
-0.320479
-0.326628
-0.33176
-0.335855
-0.338977
-0.341055
-0.342386
-0.343018
-0.342967
-0.3423
-0.34105
-0.33933
-0.337149
-0.33448
-0.331535
0.0487667
0.0382729
0.0280659
0.0169828
0.00531031
-0.00711949
-0.0207543
-0.0347649
-0.0501699
-0.0662135
-0.0827812
-0.100262
-0.118166
-0.135837
-0.15378
-0.171717
-0.188769
-0.205115
-0.22086
-0.235714
-0.249218
-0.261417
-0.272619
-0.282677
-0.291525
-0.298893
-0.305257
-0.310649
-0.31504
-0.318485
-0.320901
-0.322576
-0.323551
-0.32384
-0.323505
-0.322574
-0.321158
-0.319269
-0.316882
-0.314225
0.0452639
0.0355296
0.0260739
0.0158381
0.00508637
-0.00632782
-0.0188129
-0.0316144
-0.0456604
-0.0602843
-0.075385
-0.0913262
-0.107701
-0.123919
-0.140436
-0.157033
-0.172919
-0.188242
-0.203091
-0.217206
-0.230154
-0.241953
-0.25287
-0.262755
-0.271545
-0.278954
-0.285423
-0.290971
-0.295559
-0.299237
-0.301911
-0.303857
-0.305108
-0.305677
-0.305621
-0.304961
-0.303807
-0.302173
-0.300035
-0.297635
0.0421055
0.0330414
0.0242449
0.0147493
0.00479756
-0.00573898
-0.0172314
-0.0289929
-0.041868
-0.0552648
-0.069093
-0.0836902
-0.0987145
-0.113636
-0.128865
-0.144229
-0.159016
-0.173354
-0.187317
-0.200676
-0.213027
-0.224364
-0.234924
-0.244553
-0.253195
-0.260555
-0.267038
-0.272654
-0.277356
-0.281189
-0.284049
-0.286199
-0.287666
-0.288459
-0.288632
-0.2882
-0.287269
-0.285854
-0.283935
-0.281761
0.0392497
0.0307822
0.0225695
0.0137271
0.00447765
-0.00529182
-0.0159183
-0.0267759
-0.0386327
-0.0509603
-0.0636776
-0.0770954
-0.0909244
-0.104687
-0.118755
-0.132991
-0.146755
-0.160158
-0.173265
-0.185873
-0.197607
-0.208445
-0.218599
-0.227915
-0.236341
-0.243581
-0.250006
-0.255618
-0.260365
-0.264285
-0.267269
-0.269564
-0.271194
-0.272161
-0.272517
-0.272272
-0.271528
-0.2703
-0.268569
-0.266594
0.0366611
0.0287287
0.0210372
0.0127761
0.00414933
-0.00494315
-0.014807
-0.0248717
-0.0358353
-0.0472239
-0.0589644
-0.071342
-0.0841087
-0.096835
-0.109856
-0.123062
-0.13588
-0.148406
-0.160695
-0.17257
-0.183685
-0.194009
-0.203727
-0.21269
-0.220851
-0.227918
-0.234229
-0.239779
-0.244513
-0.248463
-0.251518
-0.253909
-0.255652
-0.25675
-0.257248
-0.257153
-0.256563
-0.255492
-0.253922
-0.252118
0.0343086
0.0268597
0.0196375
0.0118978
0.00382737
-0.00466229
-0.0138489
-0.0232122
-0.033386
-0.0439439
-0.0548201
-0.0662748
-0.078094
-0.0898905
-0.101966
-0.114234
-0.126179
-0.137888
-0.149405
-0.160575
-0.171081
-0.180885
-0.190153
-0.198738
-0.206599
-0.213454
-0.219609
-0.225051
-0.229725
-0.233659
-0.23674
-0.239182
-0.240999
-0.242188
-0.242792
-0.242816
-0.242349
-0.241407
-0.239973
-0.238315
0.0321657
0.0251565
0.0183597
0.011091
0.00352118
-0.00442808
-0.0130086
-0.0217463
-0.0312168
-0.0410349
-0.051141
-0.0617725
-0.0727429
-0.0837028
-0.0949244
-0.106338
-0.11748
-0.128427
-0.139219
-0.149717
-0.159632
-0.168923
-0.177735
-0.185929
-0.193469
-0.200083
-0.206049
-0.21135
-0.215927
-0.219808
-0.222877
-0.225334
-0.227188
-0.228436
-0.229116
-0.229228
-0.228859
-0.228021
-0.226699
-0.225166
0.0302095
0.0236022
0.0171933
0.0103526
0.0032362
-0.00422508
-0.0122597
-0.0204356
-0.0292754
-0.0384305
-0.0478465
-0.0577393
-0.0679457
-0.07815
-0.0885978
-0.0992321
-0.109636
-0.119876
-0.129989
-0.13985
-0.149198
-0.157987
-0.166348
-0.174148
-0.181354
-0.187708
-0.193462
-0.198594
-0.203047
-0.206844
-0.209871
-0.212313
-0.214175
-0.215453
-0.216181
-0.216357
-0.216061
-0.215305
-0.214076
-0.212647
0.0284201
0.0221818
0.0161284
0.00967907
0.00297602
-0.00404214
-0.011582
-0.01925
-0.0275206
-0.0360779
-0.044872
-0.0540989
-0.0636146
-0.0731338
-0.0828785
-0.0928011
-0.102525
-0.112111
-0.12159
-0.130851
-0.139657
-0.147962
-0.15588
-0.163288
-0.170156
-0.176239
-0.181764
-0.186708
-0.191015
-0.194705
-0.197667
-0.200069
-0.201914
-0.203198
-0.20395
-0.204168
-0.203925
-0.203233
-0.202079
-0.200735
0.0267802
0.0208824
0.0151564
0.00906653
0.00274231
-0.00387096
-0.0109603
-0.0181665
-0.0259204
-0.0339357
-0.0421665
-0.0507903
-0.0596795
-0.0685757
-0.0776794
-0.0869507
-0.0960494
-0.105029
-0.113916
-0.122615
-0.130906
-0.138745
-0.146234
-0.153257
-0.159787
-0.165592
-0.170879
-0.175622
-0.179768
-0.183332
-0.186209
-0.188551
-0.19036
-0.19163
-0.192387
-0.192628
-0.19242
-0.191775
-0.190681
-0.189406
0.0252747
0.0196922
0.0142691
0.00851093
0.00253531
-0.00370625
-0.010383
-0.0171673
-0.0244503
-0.0319719
-0.03969
-0.0477653
-0.0560836
-0.0644112
-0.0729289
-0.0816025
-0.0901247
-0.0985426
-0.10688
-0.115049
-0.122854
-0.130248
-0.137323
-0.14397
-0.150166
-0.155693
-0.160736
-0.165271
-0.169244
-0.17267
-0.175446
-0.177713
-0.17947
-0.180709
-0.181455
-0.181704
-0.181516
-0.180904
-0.179855
-0.178636
0.0238903
0.0186007
0.0134589
0.00800795
0.00235443
-0.00354445
-0.00984175
-0.0162388
-0.0230905
-0.0301605
-0.0374101
-0.0449843
-0.0527809
-0.0605874
-0.0685673
-0.0766914
-0.0846812
-0.0925784
-0.100403
-0.108078
-0.115422
-0.122393
-0.129072
-0.135355
-0.141224
-0.146474
-0.151273
-0.155594
-0.159387
-0.162666
-0.165331
-0.16751
-0.169202
-0.170397
-0.17112
-0.171362
-0.171183
-0.170591
-0.169577
-0.168401
0.0226153
0.0175988
0.0127191
0.00755349
0.00219876
-0.0033831
-0.00933003
-0.0153701
-0.0218252
-0.0284804
-0.0352998
-0.0424146
-0.0497325
-0.0570604
-0.0645455
-0.0721629
-0.0796602
-0.0870743
-0.0944219
-0.101633
-0.108544
-0.115113
-0.121412
-0.127347
-0.132898
-0.137875
-0.142431
-0.146537
-0.150147
-0.153273
-0.155818
-0.157901
-0.159517
-0.160659
-0.161346
-0.161573
-0.161391
-0.160809
-0.159819
-0.158676
0.0214389
0.016678
0.0120432
0.0071436
0.0020669
-0.00322034
-0.00884263
-0.0145524
-0.0206416
-0.0269142
-0.0333373
-0.0400291
-0.0469062
-0.0537933
-0.0608225
-0.0679718
-0.0750124
-0.0819771
-0.08888
-0.0956574
-0.10216
-0.108349
-0.114287
-0.119887
-0.12513
-0.129842
-0.134158
-0.138051
-0.141477
-0.144445
-0.146866
-0.148845
-0.15038
-0.151459
-0.152104
-0.152305
-0.152112
-0.151533
-0.150559
-0.149439
0.0203523
0.0158307
0.0114254
0.00677447
0.00195728
-0.00305537
-0.00837585
-0.013779
-0.0195293
-0.0254477
-0.0315046
-0.037806
-0.044276
-0.0507555
-0.0573634
-0.0640795
-0.070696
-0.0772423
-0.0837302
-0.0901017
-0.096221
-0.10205
-0.107645
-0.112924
-0.117873
-0.122326
-0.126408
-0.130091
-0.133333
-0.136143
-0.138435
-0.140308
-0.141754
-0.142767
-0.143361
-0.143531
-0.14332
-0.142736
-0.141771
-0.140667
0.0193469
0.0150501
0.0108604
0.00644249
0.00186836
-0.00288756
-0.00792681
-0.0130444
-0.0184797
-0.0240696
-0.0297868
-0.0357266
-0.0418198
-0.0479215
-0.0541386
-0.0604528
-0.0666752
-0.0728318
-0.0789323
-0.0849237
-0.0906821
-0.0961708
-0.101441
-0.106415
-0.11108
-0.115284
-0.119138
-0.122616
-0.125677
-0.128329
-0.130492
-0.132254
-0.13361
-0.13455
-0.135091
-0.135223
-0.134989
-0.134395
-0.133433
-0.132339
0.0184154
0.0143303
0.0103434
0.00614443
0.00179858
-0.00271683
-0.00749329
-0.0123442
-0.017486
-0.0227702
-0.0281714
-0.0337753
-0.0395188
-0.0452695
-0.0511236
-0.057064
-0.0629194
-0.0687127
-0.0744512
-0.0800865
-0.0855052
-0.0906734
-0.0956349
-0.100319
-0.104714
-0.108678
-0.112311
-0.115589
-0.118472
-0.120968
-0.123002
-0.124654
-0.125917
-0.126782
-0.127265
-0.127357
-0.127096
-0.126487
-0.125524
-0.124434
0.0175512
0.0136656
0.00987014
0.00587741
0.00174629
-0.00254328
-0.00707369
-0.0116748
-0.0165426
-0.0215415
-0.0266481
-0.0319393
-0.037357
-0.042781
-0.0482973
-0.0538898
-0.0594029
-0.0648567
-0.0702565
-0.0755579
-0.0806578
-0.0855229
-0.090193
-0.0946021
-0.098738
-0.102472
-0.105892
-0.108976
-0.111687
-0.11403
-0.115936
-0.117477
-0.118647
-0.119437
-0.11986
-0.119909
-0.119617
-0.118991
-0.118023
-0.116933
0.0167485
0.0130514
0.00943685
0.00563865
0.00170977
-0.00236734
-0.00666666
-0.0110334
-0.0156447
-0.0203768
-0.0252081
-0.0302074
-0.0353213
-0.0404403
-0.0456413
-0.0509094
-0.0561029
-0.0612391
-0.0663221
-0.0713107
-0.0761101
-0.0806899
-0.0850842
-0.089232
-0.0931221
-0.0966354
-0.0998515
-0.102749
-0.105292
-0.107486
-0.109267
-0.110699
-0.111776
-0.11249
-0.112852
-0.112856
-0.112532
-0.111886
-0.110912
-0.109818
0.0160019
0.0124832
0.0090399
0.00542547
0.00168744
-0.0021893
-0.00627111
-0.0104175
-0.0147881
-0.0192703
-0.0238438
-0.0285701
-0.0334001
-0.0382338
-0.0431401
-0.0481051
-0.053
-0.0578392
-0.0626251
-0.0673199
-0.0718374
-0.0761476
-0.0802812
-0.0841816
-0.0878381
-0.0911408
-0.0941617
-0.0968786
-0.0992603
-0.10131
-0.102968
-0.104293
-0.105279
-0.105918
-0.106219
-0.106178
-0.105821
-0.105154
-0.10417
-0.103071
0.0153068
0.011957
0.00867604
0.0052354
0.00167788
-0.0020095
-0.00588636
-0.00982504
-0.0139696
-0.0182171
-0.0225486
-0.0270191
-0.0315832
-0.0361496
-0.0407803
-0.0454623
-0.0500773
-0.0546378
-0.0591456
-0.0635649
-0.0678162
-0.0718726
-0.07576
-0.0794262
-0.0828609
-0.0859631
-0.0887966
-0.0913421
-0.0935677
-0.0954779
-0.0970173
-0.0982385
-0.099135
-0.0996998
-0.0999415
-0.099855
-0.0994649
-0.0987764
-0.0977831
-0.0966766
0.0146588
0.0114692
0.00834231
0.00506634
0.00167985
-0.00182843
-0.00551195
-0.00925464
-0.0131864
-0.017213
-0.021317
-0.0255474
-0.0298619
-0.0341778
-0.0385507
-0.0429672
-0.04732
-0.0516196
-0.0558657
-0.0600257
-0.0640274
-0.067844
-0.0714989
-0.0749436
-0.078168
-0.0810792
-0.083735
-0.0861152
-0.0881924
-0.0899688
-0.0913932
-0.0925136
-0.0933242
-0.0938164
-0.0940001
-0.093869
-0.0934465
-0.0927365
-0.0917338
-0.0906199
0.0140542
0.0110167
0.00803615
0.00491639
0.00169204
-0.00164665
-0.00514738
-0.00870481
-0.0124358
-0.0162543
-0.0201442
-0.0241486
-0.028229
-0.0323099
-0.0364407
-0.0406087
-0.0447154
-0.0487692
-0.05277
-0.0566867
-0.0604525
-0.0640434
-0.067479
-0.0707141
-0.0737394
-0.0764693
-0.078955
-0.0811791
-0.0831136
-0.0847617
-0.0860763
-0.0871001
-0.0878267
-0.08825
-0.0883771
-0.0882033
-0.0877492
-0.0870191
-0.0860073
-0.0848867
0.0134894
0.0105966
0.00775521
0.00478372
0.00171322
-0.00146456
-0.0047923
-0.00817429
-0.0117157
-0.015338
-0.0190257
-0.0228178
-0.0266781
-0.0305382
-0.0344419
-0.0383761
-0.0422514
-0.046075
-0.0498446
-0.0535322
-0.0570766
-0.0604543
-0.0636827
-0.0667199
-0.0695566
-0.0721144
-0.0744395
-0.0765136
-0.0783132
-0.0798392
-0.0810482
-0.0819791
-0.0826266
-0.0829828
-0.0830564
-0.0828416
-0.082358
-0.0816091
-0.0805897
-0.0794634
0.0129614
0.0102062
0.00749735
0.00466674
0.00174239
-0.00128264
-0.00444639
-0.00766206
-0.0110243
-0.0144611
-0.0179584
-0.0215503
-0.0252039
-0.0288563
-0.0325458
-0.0362607
-0.0399185
-0.0435247
-0.0470775
-0.0505496
-0.0538848
-0.0570619
-0.0600947
-0.062945
-0.0656034
-0.0679982
-0.07017
-0.0721033
-0.0737736
-0.0751833
-0.0762923
-0.0771352
-0.077706
-0.078
-0.0780221
-0.0777692
-0.0772581
-0.0764926
-0.0754674
-0.0743376
0.0124673
0.00984313
0.00726059
0.00456402
0.00177862
-0.0011013
-0.00410958
-0.00716755
-0.0103601
-0.0136218
-0.0169391
-0.0203427
-0.0238014
-0.0272575
-0.030746
-0.0342541
-0.037707
-0.0411093
-0.0444574
-0.0477265
-0.0508653
-0.0538525
-0.056701
-0.0593747
-0.0618647
-0.0641051
-0.0661326
-0.0679309
-0.0694799
-0.0707795
-0.0717929
-0.0725519
-0.0730518
-0.0732854
-0.0732602
-0.0729719
-0.0724359
-0.0716563
-0.0706278
-0.0694967
0.0120044
0.00950513
0.00704307
0.00447416
0.001821
-0.000920989
-0.00378183
-0.00669018
-0.00972218
-0.0128179
-0.0159654
-0.0191909
-0.0224657
-0.0257372
-0.0290355
-0.0323492
-0.0356093
-0.0388189
-0.0419747
-0.0450529
-0.0480058
-0.0508143
-0.0534888
-0.0559958
-0.0583268
-0.0604214
-0.0623117
-0.0639839
-0.0654169
-0.0666121
-0.0675361
-0.0682164
-0.0686478
-0.0688265
-0.0687569
-0.0684359
-0.0678784
-0.0670873
-0.0660584
-0.0649292
0.0115703
0.00919014
0.00684308
0.00439578
0.00186856
-0.000742184
-0.00346306
-0.00622935
-0.00910909
-0.0120481
-0.0150345
-0.0180918
-0.021193
-0.0242898
-0.0274093
-0.0305395
-0.0336177
-0.036646
-0.0396202
-0.0425183
-0.0452965
-0.0479363
-0.0504466
-0.0527965
-0.0549774
-0.0569341
-0.0586956
-0.0602472
-0.0615718
-0.062669
-0.0635077
-0.0641137
-0.0644828
-0.064609
-0.0644988
-0.064149
-0.0635728
-0.0627735
-0.0617471
-0.0606233
0.0111629
0.00889632
0.00665902
0.00432766
0.00192046
-0.000565348
-0.00315324
-0.00578442
-0.00852009
-0.0113103
-0.0141444
-0.0170425
-0.0199796
-0.0229116
-0.0258618
-0.0288191
-0.0317257
-0.0345828
-0.0373861
-0.0401146
-0.0427277
-0.0452085
-0.0475639
-0.0497656
-0.0518051
-0.0536318
-0.0552709
-0.0567104
-0.0579318
-0.0589363
-0.0596958
-0.0602327
-0.0605422
-0.0606213
-0.060474
-0.0600987
-0.059507
-0.0587028
-0.0576822
-0.0565676
0.0107802
0.00862194
0.00648949
0.00426871
0.00197592
-0.000390866
-0.00285219
-0.00535516
-0.00795388
-0.0106032
-0.0132928
-0.0160403
-0.0188222
-0.0215981
-0.0243888
-0.0271827
-0.0299273
-0.0326231
-0.0352648
-0.0378333
-0.0402912
-0.0426218
-0.0448313
-0.0468932
-0.0487993
-0.0505032
-0.0520278
-0.0533602
-0.0544857
-0.0554036
-0.0560882
-0.0565601
-0.056816
-0.0568508
-0.0566706
-0.056273
-0.0556694
-0.0548635
-0.0538518
-0.0527499
0.0104204
0.0083655
0.0063332
0.00421791
0.00203427
-0.00021898
-0.00256013
-0.00494084
-0.00740978
-0.00992531
-0.0124779
-0.0150826
-0.0177176
-0.0203461
-0.0229856
-0.0256254
-0.0282171
-0.0307602
-0.0332499
-0.0356676
-0.0379786
-0.0401678
-0.0422398
-0.0441699
-0.0459503
-0.0475387
-0.0489547
-0.0501878
-0.0512223
-0.0520588
-0.0526741
-0.0530862
-0.0532912
-0.053287
-0.053077
-0.0526607
-0.0520485
-0.0512439
-0.0502446
-0.049159
0.0100817
0.00812557
0.00618898
0.00417438
0.0020949
-5.02203e-05
-0.00227676
-0.0045413
-0.0068868
-0.00927532
-0.0116978
-0.0141673
-0.0166633
-0.0191519
-0.0216487
-0.0241428
-0.0265899
-0.0289892
-0.0313351
-0.0336103
-0.0357832
-0.0378389
-0.0397811
-0.0415872
-0.0432492
-0.0447287
-0.0460433
-0.0471819
-0.0481321
-0.0488928
-0.0494428
-0.049799
-0.0499588
-0.049918
-0.0496824
-0.0492507
-0.0486328
-0.0478329
-0.0468486
-0.0457829
0.00976283
0.00790087
0.00605576
0.00413728
0.00215719
0.000115366
-0.00200224
-0.004156
-0.00638417
-0.00865202
-0.010951
-0.0132922
-0.0156564
-0.0180128
-0.0203743
-0.0227307
-0.0250413
-0.0273043
-0.0295148
-0.0316559
-0.0336979
-0.0356278
-0.0374479
-0.0391371
-0.0406878
-0.0420649
-0.0432835
-0.0443348
-0.0452051
-0.0458948
-0.0463849
-0.0466899
-0.0468068
-0.0467344
-0.046476
-0.046032
-0.0454117
-0.0446187
-0.0436525
-0.0426096
0.00946221
0.00769023
0.00593258
0.00410588
0.0022208
0.000277335
-0.00173633
-0.00378458
-0.00590115
-0.00805432
-0.010236
-0.0124555
-0.014695
-0.0169257
-0.0191594
-0.0213855
-0.0235668
-0.0257015
-0.0277837
-0.029798
-0.0317172
-0.0335282
-0.0352331
-0.0368123
-0.0382582
-0.0395389
-0.0406682
-0.0416362
-0.0424328
-0.0430566
-0.0434904
-0.0437478
-0.0438272
-0.0437253
-0.0434478
-0.0429944
-0.0423737
-0.0415911
-0.0406447
-0.0396271
0.00917864
0.00749259
0.00581856
0.0040796
0.00228506
0.000435682
-0.00147908
-0.00342671
-0.0054371
-0.00748123
-0.00955138
-0.0116554
-0.0137764
-0.0158884
-0.0180007
-0.0201037
-0.0221629
-0.0241759
-0.0261373
-0.028032
-0.0298348
-0.031534
-0.0331304
-0.0346058
-0.0359533
-0.0371435
-0.0381882
-0.0390797
-0.0398065
-0.0403687
-0.040751
-0.0409651
-0.0410088
-0.040882
-0.0405878
-0.0401274
-0.0395096
-0.0387382
-0.0378141
-0.0368233
0.00891094
0.00730697
0.00571292
0.00405767
0.00234977
0.00059004
-0.00123036
-0.00308204
-0.00499136
-0.00693178
-0.00889594
-0.0108903
-0.0128991
-0.0148982
-0.0168958
-0.0188821
-0.0208256
-0.0227239
-0.0245708
-0.0263525
-0.028046
-0.0296394
-0.0311336
-0.0325114
-0.0337663
-0.0348714
-0.0358374
-0.036656
-0.0373185
-0.0378238
-0.0381578
-0.0383317
-0.0383446
-0.0381944
-0.0378865
-0.0374216
-0.0368077
-0.0360504
-0.035149
-0.0341866
0.00865805
0.00713246
0.00561486
0.00403967
0.00241441
0.000740364
-0.000990076
-0.00275025
-0.00456336
-0.0064051
-0.00826846
-0.0101587
-0.0120609
-0.0139531
-0.0158417
-0.0177177
-0.0195519
-0.0213413
-0.0230804
-0.0247556
-0.0263453
-0.0278394
-0.0292371
-0.0305232
-0.031691
-0.0327163
-0.033608
-0.0343595
-0.0349613
-0.0354133
-0.0357032
-0.0358406
-0.0358243
-0.0356546
-0.0353349
-0.0348671
-0.0342594
-0.033516
-0.0326391
-0.0317051
0.00841895
0.00696823
0.00552376
0.004025
0.00247877
0.000886514
-0.000758136
-0.00243103
-0.00415252
-0.00590035
-0.00766782
-0.0094591
-0.0112602
-0.0130507
-0.0148364
-0.0166078
-0.0183384
-0.0200252
-0.0216619
-0.0232363
-0.0247288
-0.0261287
-0.0274358
-0.0286355
-0.0297215
-0.0306717
-0.0314943
-0.0321821
-0.0327279
-0.0331307
-0.0333792
-0.0334828
-0.0334413
-0.0332532
-0.0329241
-0.0324552
-0.0318541
-0.0311267
-0.0302732
-0.0293679
0.00819276
0.00681354
0.00543904
0.0040133
0.00254252
0.00102839
-0.000534444
-0.00212409
-0.00375832
-0.00541676
-0.007093
-0.00879023
-0.0104953
-0.0121896
-0.0138772
-0.0155497
-0.0171824
-0.0187717
-0.0203121
-0.0217915
-0.0231916
-0.0245031
-0.0257247
-0.0268431
-0.0278522
-0.0287321
-0.0294894
-0.0301186
-0.0306115
-0.0309682
-0.0311791
-0.031252
-0.0311864
-0.0309832
-0.0306457
-0.0301767
-0.0295837
-0.0288712
-0.0280421
-0.027164
0.00797861
0.00666774
0.00536004
0.0040041
0.00260544
0.00116589
-0.000318908
-0.00182913
-0.00338025
-0.00495358
-0.00654298
-0.00815084
-0.00976473
-0.0113674
-0.0129625
-0.0145412
-0.016081
-0.0175784
-0.0190273
-0.0204169
-0.0217303
-0.0229581
-0.0240992
-0.0251411
-0.0260781
-0.0268918
-0.0275884
-0.0281617
-0.028606
-0.0289203
-0.0290957
-0.0291401
-0.0290537
-0.028836
-0.028492
-0.0280239
-0.0274386
-0.0267421
-0.0259352
-0.0250836
0.00777576
0.00653007
0.00528634
0.00399707
0.00266721
0.00129896
-0.000111405
-0.00154586
-0.00301781
-0.00451009
-0.00601685
-0.00753972
-0.00906704
-0.010583
-0.0120899
-0.0135799
-0.0150318
-0.0164418
-0.0178047
-0.0191096
-0.0203407
-0.0214899
-0.0225551
-0.0235251
-0.0243941
-0.0251458
-0.025785
-0.0263071
-0.0267053
-0.0269798
-0.027123
-0.0271414
-0.0270351
-0.0268053
-0.0264555
-0.0259887
-0.0254117
-0.0247295
-0.023945
-0.0231174
0.00758342
0.00640003
0.00521738
0.00399175
0.00272777
0.00142753
8.81722e-05
-0.00127399
-0.00267051
-0.00408562
-0.00551373
-0.00695583
-0.00840094
-0.00983432
-0.011258
-0.0126636
-0.0140322
-0.01536
-0.0166411
-0.0178658
-0.0190198
-0.0200944
-0.0210882
-0.0219904
-0.0227958
-0.0234891
-0.024075
-0.0245482
-0.0249041
-0.0251418
-0.0252545
-0.0252488
-0.0251252
-0.0248837
-0.0245291
-0.024064
-0.0234947
-0.022827
-0.0220622
-0.0212571
0.00740097
0.00627698
0.00515276
0.00398801
0.00278681
0.00155159
0.000279949
-0.00101324
-0.00233791
-0.00367954
-0.00503279
-0.00639809
-0.00776506
-0.00912025
-0.0104646
-0.0117905
-0.0130802
-0.0143298
-0.0155339
-0.0166831
-0.0177637
-0.0187683
-0.0196948
-0.0205333
-0.0212787
-0.0219174
-0.0224528
-0.0228812
-0.0231969
-0.0234002
-0.0234852
-0.0234573
-0.0233168
-0.0230654
-0.0227064
-0.022243
-0.0216814
-0.0210263
-0.0202806
-0.0194952
0.00722771
0.00616051
0.00509208
0.00398539
0.00284431
0.00167108
0.000464033
-0.000763352
-0.00201956
-0.00329123
-0.00457324
-0.00586552
-0.00715831
-0.00843903
-0.00970838
-0.0109586
-0.0121736
-0.0133493
-0.0144804
-0.0155581
-0.0165699
-0.0175083
-0.0183713
-0.0191498
-0.0198389
-0.0204261
-0.0209147
-0.0213003
-0.0215791
-0.0217505
-0.0218092
-0.0217605
-0.0216054
-0.0213442
-0.0209815
-0.0205198
-0.0199649
-0.0193221
-0.0185927
-0.017825
0.00706317
0.00605004
0.00503495
0.00398381
0.00289997
0.001786
0.000640554
-0.000524068
-0.00171505
-0.00292011
-0.00413431
-0.00535717
-0.00657946
-0.00778965
-0.00898753
-0.0101662
-0.0113104
-0.0124161
-0.0134784
-0.0144886
-0.0154351
-0.0163111
-0.0171144
-0.0178364
-0.0184726
-0.0190115
-0.0194558
-0.0198022
-0.0200459
-0.0201873
-0.0202219
-0.0201542
-0.0199847
-0.0197152
-0.0193488
-0.0188886
-0.0183401
-0.0177077
-0.0169937
-0.0162411
0.00690666
0.00594522
0.00498105
0.00398282
0.00295381
0.00189632
0.000809623
-0.000295132
-0.00142398
-0.00256561
-0.00371528
-0.00487214
-0.0060275
-0.00717048
-0.00830087
-0.00941149
-0.0104886
-0.0115283
-0.0125253
-0.0134717
-0.0143568
-0.0151739
-0.0159209
-0.0165898
-0.0171762
-0.0176698
-0.0180729
-0.0183816
-0.0185931
-0.0187068
-0.0187186
-0.0186329
-0.0184508
-0.0181729
-0.0178033
-0.0173445
-0.0168014
-0.0161789
-0.0154779
-0.0147386
0.00675777
0.00584553
0.00492999
0.00398241
0.00300557
0.00200206
0.000971372
-7.62965e-05
-0.00114596
-0.0022272
-0.00331545
-0.00440956
-0.00550128
-0.00658066
-0.00764673
-0.00869306
-0.00970673
-0.0106836
-0.0116191
-0.0125053
-0.0133322
-0.0140939
-0.0147878
-0.0154067
-0.0159463
-0.0163974
-0.0167614
-0.0170358
-0.0172166
-0.0173042
-0.0172951
-0.0171929
-0.0169984
-0.0167134
-0.0163405
-0.0158827
-0.0153449
-0.0147306
-0.0140418
-0.0133136
0.00661591
0.00575064
0.00488156
0.00398219
0.00305529
0.00210321
0.00112592
0.000132678
-0.000880624
-0.00190437
-0.00293418
-0.00396863
-0.00499993
-0.00601874
-0.00702407
-0.00800936
-0.00896285
-0.00988061
-0.0107576
-0.0115869
-0.0123592
-0.0130684
-0.0137124
-0.0142842
-0.0147799
-0.0151909
-0.0155187
-0.0157602
-0.0159129
-0.0159763
-0.0159473
-0.0158296
-0.0156243
-0.015332
-0.0149563
-0.0144995
-0.0139659
-0.0133597
-0.012681
-0.0119629
0.0064807
0.00566018
0.00483541
0.00398215
0.00310275
0.00219979
0.00127339
0.000332031
-0.000627604
-0.00159663
-0.00257083
-0.00354855
-0.00452245
-0.00548393
-0.0064314
-0.00735898
-0.00825553
-0.00911707
-0.00993913
-0.0107147
-0.0114351
-0.0120951
-0.012692
-0.0132196
-0.0136739
-0.0140474
-0.0143409
-0.0145523
-0.0146782
-0.0147189
-0.0146718
-0.0145399
-0.0143238
-0.0140254
-0.0136469
-0.013191
-0.0126617
-0.0120621
-0.0113933
-0.0106838
0.00635166
0.00557381
0.00479134
0.00398195
0.00314799
0.00229182
0.0014139
0.000521993
-0.000386549
-0.00130351
-0.00222481
-0.00314861
-0.00406804
-0.00497491
-0.00586779
-0.00674054
-0.00758313
-0.00839171
-0.00916155
-0.00988634
-0.0105581
-0.0111715
-0.0117241
-0.0122101
-0.0126257
-0.0129638
-0.0132256
-0.0134081
-0.0135095
-0.0135293
-0.013465
-0.0133197
-0.0130945
-0.0127898
-0.012409
-0.011954
-0.0114284
-0.0108357
-0.0101754
-0.00947425
0.00622843
0.0054912
0.00474905
0.00398159
0.00319083
0.00237931
0.0015476
0.000702795
-0.000157116
-0.00102454
-0.00189553
-0.00276812
-0.00363576
-0.00449101
-0.00533184
-0.00615279
-0.00694435
-0.0077026
-0.00842335
-0.00910031
-0.00972594
-0.0102955
-0.0108065
-0.0112533
-0.0116325
-0.0119376
-0.0121693
-0.0123256
-0.0124036
-0.0124038
-0.0123239
-0.0121665
-0.0119321
-0.0116225
-0.0112395
-0.0107856
-0.010264
-0.00967719
-0.00902582
-0.00833236
0.00611057
0.00541205
0.00470837
0.00398078
0.00323131
0.0024623
0.00167458
0.000874652
6.10185e-05
-0.000759278
-0.00158244
-0.00240638
-0.00322493
-0.00403101
-0.00482275
-0.00559452
-0.00633772
-0.0070486
-0.00772273
-0.00835448
-0.00893688
-0.00946512
-0.00993683
-0.0103469
-0.0106919
-0.0109661
-0.01117
-0.0113011
-0.0113579
-0.01134
-0.0112455
-0.0110767
-0.0108348
-0.0105202
-0.0101357
-0.0096831
-0.00916524
-0.00858518
-0.00794182
-0.00725662
0.00599777
0.00533606
0.00466903
0.00397952
0.00326929
0.00254082
0.00179499
0.00103778
0.000268171
-0.000507317
-0.00128502
-0.00206276
-0.00283469
-0.00359429
-0.00433926
-0.0050646
-0.00576208
-0.00642797
-0.00705832
-0.00764748
-0.00818884
-0.0086783
-0.00911311
-0.00948865
-0.00980169
-0.0100469
-0.0102245
-0.0103329
-0.0103695
-0.0103348
-0.0102271
-0.0100482
-0.00979891
-0.0094806
-0.00909494
-0.00864401
-0.00813059
-0.00755667
-0.00692235
-0.00624556
0.00588962
0.00526298
0.00463088
0.00397755
0.00330481
0.0026149
0.00190894
0.0011924
0.000464647
-0.000268248
-0.00100276
-0.00173663
-0.00246437
-0.00317972
-0.00388064
-0.0045619
-0.00521611
-0.00583968
-0.00642846
-0.00697738
-0.00748042
-0.00793318
-0.00833338
-0.00867653