/*--------------------------------*- C++ -*----------------------------------*\
| =========                 |                                                 |
| \\      /  F ield         | OpenFOAM: The Open Source CFD Toolbox           |
|  \\    /   O peration     | Version:  3.0.1                                 |
|   \\  /    A nd           | Web:      www.OpenFOAM.org                      |
|    \\/     M anipulation  |                                                 |
\*---------------------------------------------------------------------------*/
FoamFile
{
    version     2.0;
    format      ascii;
    class       surfaceScalarField;
    location    "400";
    object      phi;
}
// * * * * * * * * * * * * * * * * * * * * * * * * * * * * * * * * * * * * * //

dimensions      [0 3 -1 0 0 0 0];

internalField   nonuniform List<scalar> 
115520
(
0.0141221
-0.0017899
-0.0123322
0.0151322
-0.00101003
0.0151593
-2.715e-05
0.0146632
0.00049617
0.0139163
0.000746949
0.0130811
0.000835241
0.0123445
0.000736634
0.0116641
0.000680403
0.0111462
0.000517929
0.0107897
0.000356507
0.0105449
0.000244865
0.0104217
0.000123178
0.0104212
5.13106e-07
0.0104839
-6.26866e-05
0.0105891
-0.000105096
0.0107371
-0.000147998
0.0109147
-0.00017763
0.0111022
-0.000187445
0.0112901
-0.000187893
0.0114792
-0.000189078
0.0116726
-0.000193353
0.0118599
-0.000187306
0.012037
-0.000177107
0.0122009
-0.000163896
0.0123612
-0.000160281
0.0125128
-0.0001516
0.0126532
-0.000140315
0.0127806
-0.000127432
0.0128938
-0.000113151
0.0130002
-0.000106422
0.0130956
-9.53676e-05
0.0131788
-8.31535e-05
0.0132492
-7.04377e-05
0.0133066
-5.73502e-05
0.0133404
-3.38552e-05
0.0133228
1.76853e-05
0.0132789
4.38386e-05
0.013237
4.19258e-05
0.0132266
1.04215e-05
-4.35582e-05
0.0132702
0.00925309
-0.00291101
-0.00813199
0.0102548
-0.0020117
0.0112017
-0.000974035
0.0120461
-0.000348217
0.0127248
6.82534e-05
0.013206
0.000354025
0.0135289
0.000413822
0.0136891
0.00052018
0.0137652
0.000441863
0.0137876
0.000334095
0.0137531
0.000279458
0.0137102
0.000166026
0.0137001
1.06993e-05
0.0136936
-5.62107e-05
0.013699
-0.000110463
0.0137473
-0.000196256
0.0138228
-0.000253167
0.0139098
-0.000274392
0.014006
-0.000284081
0.0141218
-0.000304934
0.0142537
-0.000325222
0.0143862
-0.000319825
0.0145172
-0.00030801
0.0146439
-0.000290654
0.0147809
-0.000297224
0.0149122
-0.000282883
0.0150357
-0.000263778
0.01515
-0.000241731
0.0152538
-0.000216957
0.0153577
-0.000210353
0.0154509
-0.000188476
0.0155322
-0.000164538
0.015601
-0.00013918
0.015656
-0.00011239
0.0157008
-7.85521e-05
0.0157307
-1.22538e-05
0.0157502
2.43233e-05
0.0157655
2.66927e-05
0.015783
-7.0881e-06
-7.78407e-05
0.0158173
0.00863969
-0.00394797
-0.00760273
0.00957522
-0.00294722
0.0104289
-0.00182772
0.0111586
-0.00107789
0.0118066
-0.000579715
0.012376
-0.000215331
0.0128431
-5.3308e-05
0.0132343
0.00012904
0.0135382
0.00013791
0.0137743
9.80262e-05
0.0139513
0.000102443
0.0140892
2.81608e-05
0.0142143
-0.000114407
0.0143214
-0.000163231
0.01442
-0.000209102
0.0145357
-0.000311952
0.0146623
-0.000379705
0.0147915
-0.000403619
0.0149239
-0.000416457
0.0150682
-0.000449285
0.0152216
-0.000478584
0.0153732
-0.000471372
0.0155219
-0.000456723
0.0156663
-0.000435041
0.0158161
-0.000447054
0.015959
-0.0004257
0.0160935
-0.000398272
0.0162189
-0.000367205
0.0163346
-0.000332553
0.0164469
-0.000322686
0.0165476
-0.000289205
0.0166362
-0.000253122
0.0167122
-0.000215123
0.0167748
-0.00017505
0.0168263
-0.000129962
0.0168632
-4.91831e-05
0.0168865
1.06775e-06
0.0169004
1.27726e-05
0.0169063
-1.30077e-05
-7.57209e-05
0.0169042
0.0078538
-0.00483486
-0.00696691
0.00871832
-0.00381173
0.00956168
-0.00267107
0.01033
-0.00184624
0.0110299
-0.00127952
0.0116588
-0.000844283
0.0122047
-0.000599212
0.0126937
-0.000359881
0.0131129
-0.000281309
0.0134744
-0.000263459
0.0137851
-0.000208303
0.0140522
-0.00023885
0.0142906
-0.000352795
0.0145012
-0.000373878
0.0146899
-0.000397759
0.0148744
-0.000496511
0.0150552
-0.000560472
0.0152293
-0.000577734
0.0153989
-0.000586027
0.0155723
-0.000622674
0.0157488
-0.000655039
0.0159207
-0.000643303
0.0160877
-0.000623653
0.0162488
-0.000596173
0.0164125
-0.000610765
0.0165686
-0.000581742
0.0167157
-0.000545367
0.0168531
-0.000504682
0.0169803
-0.000459695
0.0171031
-0.000445433
0.017214
-0.000400152
0.0173126
-0.000351671
0.0173982
-0.000300776
0.0174705
-0.000247313
0.017532
-0.000191438
0.0175805
-9.77308e-05
0.0176153
-3.36472e-05
0.0176378
-9.73282e-06
0.0176491
-2.43286e-05
-7.55922e-05
0.017649
0.00743844
-0.00565303
-0.00662027
0.00825214
-0.00462543
0.00906914
-0.00348806
0.00984491
-0.00262201
0.0105781
-0.00201268
0.0112588
-0.00152506
0.0118645
-0.00120486
0.0124231
-0.000918475
0.0129152
-0.000773376
0.0133512
-0.000699476
0.0137409
-0.000598019
0.0140853
-0.000583256
0.0143935
-0.000661002
0.0146716
-0.000651909
0.0149235
-0.000649632
0.0151609
-0.000733977
0.0153868
-0.000786349
0.0156007
-0.00079163
0.015805
-0.00079031
0.0160068
-0.000824433
0.0162065
-0.000854745
0.016399
-0.000835824
0.0165843
-0.000808967
0.0167622
-0.000773991
0.0169393
-0.000787904
0.0171076
-0.000750084
0.0172661
-0.000703852
0.0174143
-0.000652797
0.0175515
-0.000596906
0.0176825
-0.000576407
0.0178011
-0.000518769
0.0179068
-0.000457373
0.0179992
-0.000393193
0.018078
-0.000326113
0.0181453
-0.000258755
0.0181995
-0.00015193
0.0182394
-7.34534e-05
0.0182652
-3.55257e-05
0.018277
-3.61168e-05
-7.28189e-05
0.0182742
0.0071371
-0.00642839
-0.00636175
0.007916
-0.00540433
0.00870664
-0.0042787
0.00947584
-0.00339121
0.0102223
-0.00275918
0.0109355
-0.00223818
0.0115881
-0.00185747
0.0122046
-0.00153497
0.0127604
-0.00132919
0.013263
-0.00120203
0.0137222
-0.00105729
0.0141351
-0.000996116
0.0145065
-0.00103238
0.0148454
-0.000990774
0.0151546
-0.000958872
0.0154416
-0.00102092
0.0157106
-0.00105541
0.0159631
-0.00104415
0.0162015
-0.00102869
0.0164317
-0.00105459
0.0166551
-0.00107813
0.0168685
-0.00104927
0.0170724
-0.00101281
0.0172667
-0.000968293
0.0174573
-0.000978523
0.0176378
-0.000930594
0.0178074
-0.000873428
0.0179657
-0.000811034
0.0181121
-0.000743366
0.0182509
-0.000715152
0.0183766
-0.000644521
0.0184889
-0.000569624
0.0185873
-0.000491605
0.0186716
-0.000410384
0.0187436
-0.000330823
0.0188021
-0.000210393
0.0188456
-0.000116953
0.0188741
-6.40285e-05
0.0188875
-4.94642e-05
-7.06284e-05
0.0188853
0.00693252
-0.00718175
-0.00617917
0.00769131
-0.00616311
0.00846327
-0.00505066
0.00922309
-0.00415102
0.00997137
-0.00350746
0.0106997
-0.00296655
0.0113816
-0.00253931
0.0120385
-0.00219194
0.0126435
-0.00193416
0.0132007
-0.00175918
0.0137192
-0.00157585
0.0141925
-0.00146938
0.0146215
-0.00146139
0.015017
-0.00138623
0.0153806
-0.00132252
0.0157159
-0.0013562
0.0160283
-0.00136776
0.0163203
-0.00133616
0.0165942
-0.00130262
0.0168547
-0.00131512
0.017104
-0.00132735
0.0173404
-0.00128572
0.0175647
-0.0012371
0.0177772
-0.00118078
0.0179828
-0.00118413
0.0181767
-0.00112451
0.0183584
-0.00105508
0.0185275
-0.000980146
0.0186838
-0.000899622
0.0188306
-0.000862023
0.0189637
-0.000777566
0.0190825
-0.000688403
0.0191867
-0.000595816
0.0192761
-0.00049976
0.0193523
-0.000407044
0.0194141
-0.000272242
0.0194603
-0.000163099
0.0194905
-9.42514e-05
0.0195046
-6.34864e-05
-6.80986e-05
0.019502
0.00679099
-0.00792607
-0.00604668
0.00754087
-0.00691299
0.00830296
-0.00581275
0.0090571
-0.00490515
0.00980511
-0.00425547
0.0105411
-0.0037025
0.0112412
-0.00323941
0.011925
-0.00287582
0.0125659
-0.00257502
0.0131656
-0.00235888
0.0137324
-0.0021426
0.014257
-0.00199404
0.0147373
-0.00194169
0.0151845
-0.00183344
0.0155992
-0.00173721
0.0159814
-0.00173836
0.0163369
-0.00172324
0.0166691
-0.00166834
0.0169799
-0.00161346
0.0172727
-0.00160795
0.0175501
-0.00160468
0.0178118
-0.00154749
0.0180588
-0.00148411
0.0182916
-0.00141358
0.0185143
-0.00140674
0.0187234
-0.00133365
0.0189187
-0.00125041
0.0191001
-0.00116152
0.0192673
-0.00106685
0.0194234
-0.00101806
0.0195646
-0.000918777
0.0196906
-0.000814411
0.0198012
-0.000706362
0.019896
-0.000594602
0.0199766
-0.000487666
0.020042
-0.000337601
0.0200908
-0.000211941
0.0201229
-0.000126285
0.0201378
-7.84236e-05
-6.56496e-05
0.0201354
0.00669584
-0.00867044
-0.00595147
0.00744517
-0.00766232
0.00820502
-0.00657261
0.00895869
-0.00565882
0.00970852
-0.0050053
0.0104504
-0.00444439
0.0111638
-0.00395277
0.0118666
-0.00357861
0.0125339
-0.00324239
0.0131664
-0.00299138
0.0137714
-0.00274758
0.0143385
-0.00256112
0.014863
-0.00246619
0.015356
-0.00232644
0.0158171
-0.00219826
0.0162433
-0.00216461
0.0166405
-0.00212042
0.0170123
-0.00204019
0.0173604
-0.0019615
0.0176866
-0.00193417
0.0179936
-0.0019117
0.0182825
-0.00183639
0.0185542
-0.00175575
0.0188092
-0.00166864
0.0190508
-0.00164832
0.019277
-0.00155985
0.0194878
-0.00146112
0.019683
-0.00135672
0.0198626
-0.00124644
0.020029
-0.00118453
0.0201795
-0.00106926
0.0203137
-0.000948597
0.0204314
-0.000824044
0.0205324
-0.000695573
0.0206179
-0.000573227
0.0206872
-0.000406897
0.0207391
-0.000263812
0.0207732
-0.000160413
0.0207893
-9.45159e-05
-6.3461e-05
0.0207871
0.00663584
-0.00942141
-0.00588488
0.00739093
-0.00841741
0.00815473
-0.00733641
0.00891298
-0.00641707
0.00966811
-0.00576044
0.0104172
-0.00519349
0.0111426
-0.00467815
0.0118607
-0.00429672
0.0125492
-0.00393085
0.0132079
-0.00365016
0.0138437
-0.00338336
0.0144458
-0.00316322
0.015008
-0.00302841
0.0155409
-0.0028593
0.0160432
-0.00270058
0.0165099
-0.00263132
0.0169463
-0.00255682
0.0173562
-0.00245008
0.0177406
-0.00234591
0.0181003
-0.00229383
0.0184377
-0.0022491
0.0187547
-0.00215344
0.0190523
-0.0020533
0.019331
-0.00194739
0.0195932
-0.00191045
0.019838
-0.00180468
0.0200656
-0.00168871
0.020276
-0.00156716
0.0204693
-0.00143973
0.0206475
-0.00136267
0.0208083
-0.00123012
0.0209517
-0.00109196
0.0210774
-0.000949745
0.0211853
-0.000803444
0.0212765
-0.000664404
0.0213503
-0.000480714
0.0214057
-0.000319217
0.0214424
-0.000197073
0.02146
-0.000112152
-6.18567e-05
0.0214584
0.00660357
-0.0101839
-0.00584104
0.00736931
-0.00918315
0.00814206
-0.00810916
0.00890933
-0.00718434
0.00967343
-0.00652454
0.0104322
-0.00595225
0.0111703
-0.0054163
0.0119029
-0.00502924
0.0126099
-0.00463789
0.0132912
-0.00433145
0.0139529
-0.00404507
0.0145846
-0.00379494
0.0151794
-0.0036232
0.015747
-0.00342694
0.0162859
-0.00323938
0.0167893
-0.00313475
0.017262
-0.00302956
0.0177077
-0.00289578
0.018127
-0.00276513
0.0185193
-0.00268617
0.018887
-0.0026168
0.0192325
-0.00249892
0.0195565
-0.00237733
0.0198598
-0.00225064
0.0201435
-0.0021942
0.0204081
-0.00206928
0.0206538
-0.00193436
0.0208806
-0.00179399
0.0210887
-0.00164782
0.0212796
-0.00155356
0.0214518
-0.00140238
0.0216053
-0.00124543
0.0217399
-0.0010843
0.0218554
-0.000918959
0.0219528
-0.000761867
0.0220318
-0.000559643
0.0220912
-0.00037867
0.0221309
-0.000236715
0.0221504
-0.000131715
-6.11523e-05
0.0221497
0.00659385
-0.010962
-0.00581582
0.0073742
-0.00996349
0.00815998
-0.00889495
0.0089401
-0.00796446
0.0097166
-0.00730105
0.0104878
-0.00672344
0.0112404
-0.00616887
0.0119879
-0.0057768
0.0127129
-0.00536283
0.0134149
-0.00503348
0.0140997
-0.0047299
0.0147576
-0.0044528
0.0153813
-0.00424688
0.0159798
-0.00402545
0.0165512
-0.00381078
0.017088
-0.00367157
0.0175943
-0.00353585
0.0180734
-0.00337494
0.0185256
-0.00321728
0.0189494
-0.00310998
0.0193468
-0.00301417
0.0197204
-0.00287258
0.020071
-0.00272789
0.0203991
-0.00257869
0.0207051
-0.0025002
0.0209902
-0.00235439
0.0212547
-0.00219884
0.0214987
-0.00203804
0.0217224
-0.00187155
0.021927
-0.00175808
0.0221114
-0.00158686
0.0222758
-0.00140977
0.0224199
-0.00122842
0.0225437
-0.00104277
0.0226481
-0.000866215
0.0227326
-0.000644218
0.0227966
-0.000442639
0.0228397
-0.000279745
0.0228615
-0.000153553
-6.16271e-05
0.022862
0.00660302
-0.0117588
-0.00580622
0.00740125
-0.0107617
0.0082035
-0.0096972
0.00899975
-0.00876071
0.00979177
-0.00809308
0.0105781
-0.00750982
0.0113472
-0.00693788
0.0121111
-0.00654077
0.0128544
-0.00610612
0.0135767
-0.00575582
0.0142834
-0.00543659
0.0149654
-0.00513479
0.0156156
-0.00489706
0.0162422
-0.00465209
0.0168433
-0.00441181
0.0174108
-0.00423906
0.0179482
-0.00407327
0.0184586
-0.00388537
0.0189418
-0.0037005
0.0193958
-0.00356391
0.0198219
-0.00344032
0.0202232
-0.00327384
0.0206
-0.00310469
0.0209528
-0.00293149
0.0212813
-0.00282873
0.0215873
-0.00266042
0.0218712
-0.00248268
0.022133
-0.00229986
0.022373
-0.00211151
0.0225918
-0.00197689
0.0227891
-0.0017842
0.0229649
-0.00158559
0.0231192
-0.00138268
0.0232518
-0.00117541
0.0233636
-0.000977942
0.0234542
-0.000734884
0.0235231
-0.000511514
0.0235699
-0.000326503
0.0235943
-0.000177951
-6.35114e-05
0.0235962
0.00662838
-0.0125771
-0.00581005
0.00744731
-0.0115807
0.00826898
-0.0105189
0.00908424
-0.00957598
0.00989458
-0.00890342
0.0106987
-0.00831398
0.0114863
-0.00772544
0.0122684
-0.00732287
0.0130311
-0.0068688
0.0137741
-0.00649884
0.0145024
-0.00616487
0.0152076
-0.00584002
0.0158829
-0.00557239
0.016536
-0.0053051
0.0171646
-0.00504045
0.0177608
-0.00483523
0.0183274
-0.00463991
0.0188673
-0.00442527
0.0193799
-0.00421313
0.0198627
-0.00404666
0.0203167
-0.00389432
0.0207448
-0.00370199
0.0211474
-0.00350724
0.0215246
-0.00330876
0.0218757
-0.00317982
0.0222028
-0.00298753
0.0225063
-0.00278611
0.0227862
-0.0025798
0.0230428
-0.00236809
0.0232764
-0.00221046
0.0234871
-0.00199488
0.0236748
-0.00177337
0.0238397
-0.00154752
0.0239815
-0.00131728
0.024101
-0.00109744
0.0241982
-0.000831995
0.0242722
-0.000585605
0.024323
-0.000377252
0.0243502
-0.000205125
-6.69706e-05
0.0243536
0.00666795
-0.0134194
-0.00582563
0.00751008
-0.0124228
0.00835376
-0.0113626
0.0091906
-0.0104128
0.0100218
-0.00973462
0.0108462
-0.00913836
0.0116544
-0.00853366
0.0124565
-0.00812496
0.0132399
-0.00765225
0.0140045
-0.00726344
0.0147548
-0.00691513
0.0154831
-0.00656837
0.0161831
-0.00627231
0.0168615
-0.00598356
0.0175165
-0.00569542
0.01814
-0.0054587
0.0187344
-0.00523438
0.0193024
-0.00499322
0.0198431
-0.00475385
0.0203535
-0.00455711
0.0208345
-0.0043753
0.0212888
-0.00415631
0.0217166
-0.00393499
0.022118
-0.00371011
0.0224915
-0.00355336
0.0228397
-0.00333572
0.0231628
-0.00310925
0.0234611
-0.00287803
0.0237345
-0.00264152
0.0239832
-0.00245911
0.0242075
-0.00221924
0.0244076
-0.00197343
0.0245833
-0.00172326
0.0247347
-0.0014687
0.0248623
-0.00122501
0.0249661
-0.000935821
0.0250457
-0.00066514
0.0251006
-0.000432179
0.0251307
-0.000235224
-7.21087e-05
0.0251358
0.00672024
-0.014288
-0.00585169
0.00758783
-0.0132904
0.00845589
-0.0122306
0.00931664
-0.0112736
0.010171
-0.010589
0.0110179
-0.00998524
0.0118488
-0.00936455
0.0126728
-0.00894895
0.0134785
-0.00845802
0.0142659
-0.00805079
0.015039
-0.0076882
0.0157908
-0.00732022
0.0165153
-0.00699685
0.0172189
-0.00668712
0.0178996
-0.00637608
0.0185495
-0.00610867
0.0191709
-0.00585577
0.019766
-0.00558825
0.0203338
-0.00532164
0.020871
-0.00509438
0.0213783
-0.00488253
0.0218582
-0.0046362
0.0223106
-0.00438745
0.0227357
-0.00413517
0.0231315
-0.00394917
0.0235007
-0.00370494
0.0238436
-0.00345211
0.0241601
-0.00319462
0.0244506
-0.00293194
0.0247145
-0.00272307
0.0249528
-0.00245751
0.0251654
-0.00218601
0.0253523
-0.00191015
0.0255135
-0.00162988
0.0256493
-0.00136086
0.02576
-0.00104655
0.0258452
-0.000750274
0.0259044
-0.000491406
0.0259375
-0.000268329
-7.8968e-05
0.0259444
0.00678409
-0.0151848
-0.00588724
0.00767926
-0.0141856
0.00857389
-0.0131252
0.00946071
-0.0121604
0.0103404
-0.0114687
0.0112119
-0.0108567
0.0120675
-0.0102201
0.0129152
-0.00979671
0.0137449
-0.00928775
0.0145564
-0.00886224
0.0153534
-0.00848517
0.0161295
-0.00809635
0.0168791
-0.00774641
0.0176079
-0.00741594
0.0183141
-0.00708231
0.0189902
-0.0067848
0.0196381
-0.00650361
0.0202596
-0.00620978
0.0208538
-0.00591587
0.0214173
-0.00565786
0.0219502
-0.00541548
0.0224552
-0.00514115
0.0229319
-0.00486419
0.0233804
-0.0045836
0.0237983
-0.00436708
0.0241884
-0.00409507
0.024551
-0.00381465
0.0248859
-0.0035296
0.0251934
-0.0032394
0.0254728
-0.00300249
0.0257252
-0.00270985
0.0259504
-0.00241129
0.0261486
-0.00210834
0.0263197
-0.00180098
0.026464
-0.00150515
0.0265818
-0.00116432
0.0266726
-0.000841103
0.0267362
-0.000554991
0.0267723
-0.000304464
-8.75359e-05
0.0267809
0.00685866
-0.016112
-0.00593151
0.00778341
-0.0151103
0.00870666
-0.0140485
0.0096216
-0.0130753
0.0105287
-0.0123758
0.0114268
-0.0117549
0.0123089
-0.0111022
0.0131823
-0.0106701
0.0140377
-0.0101431
0.0148747
-0.00969925
0.0156968
-0.0093073
0.0164982
-0.00889775
0.0172735
-0.00852173
0.0180281
-0.00817048
0.0187601
-0.00781432
0.0194624
-0.00748713
0.0201366
-0.00717778
0.0207843
-0.00685754
0.0214047
-0.00653617
0.021994
-0.00624717
0.0225523
-0.00597381
0.023082
-0.00567085
0.0235827
-0.00536493
0.0240543
-0.00505515
0.0244942
-0.00480697
0.0249052
-0.00450605
0.0252874
-0.00419683
0.0256407
-0.00388297
0.0259653
-0.00356395
0.0262603
-0.00329748
0.0265268
-0.00297639
0.0267649
-0.00264937
0.0269745
-0.00231795
0.0271556
-0.0019821
0.0273084
-0.00165798
0.0274333
-0.00128919
0.0275299
-0.000937667
0.0275978
-0.000622944
0.027637
-0.000343604
-9.77533e-05
0.0276472
0.00694328
-0.0170714
-0.00598393
0.00789954
-0.0160666
0.00885339
-0.0150023
0.00979841
-0.0140204
0.0107349
-0.0133123
0.0116616
-0.0126816
0.0125721
-0.0120127
0.013473
-0.011571
0.0143556
-0.0110257
0.0152197
-0.0105633
0.0160684
-0.010156
0.0168962
-0.00972558
0.0176982
-0.00932372
0.0184792
-0.00895147
0.0192375
-0.00857264
0.0199663
-0.00821599
0.020667
-0.00787846
0.0213411
-0.0075316
0.0219874
-0.0071825
0.0226024
-0.00686222
0.023186
-0.0065574
0.0237403
-0.00622515
0.0242649
-0.0058895
0.0247594
-0.00554968
0.0252213
-0.00526878
0.025653
-0.00493784
0.0260549
-0.00459866
0.0264266
-0.00425474
0.0267683
-0.00390561
0.0270789
-0.00360811
0.0273598
-0.0032572
0.0276107
-0.00290035
0.0278318
-0.00253905
0.028023
-0.00217329
0.0281844
-0.00181939
0.0283165
-0.0014212
0.0284188
-0.00103997
0.0284911
-0.000695236
0.0285331
-0.000385686
-0.000109521
0.0285449
0.00703746
-0.0180648
-0.00604402
0.00802712
-0.0170562
0.00901349
-0.0159887
0.00999051
-0.0149974
0.0109582
-0.01428
0.0119155
-0.0136389
0.0128562
-0.0129534
0.0137864
-0.0125011
0.014698
-0.0119373
0.0155907
-0.011456
0.0164673
-0.0110326
0.0173229
-0.0105811
0.0181526
-0.0101535
0.0189609
-0.00975981
0.0197463
-0.00935801
0.0205022
-0.00897193
0.0212298
-0.00860606
0.0219305
-0.00823222
0.022603
-0.00785501
0.0232438
-0.00750309
0.0238528
-0.00716631
0.0244317
-0.00680407
0.0249801
-0.00643791
0.0254976
-0.00606716
0.0259813
-0.00575253
0.026434
-0.00539048
0.0268555
-0.00502017
0.0272457
-0.00464496
0.0276045
-0.00426444
0.0279309
-0.00393448
0.0282261
-0.00355238
0.02849
-0.00316429
0.0287227
-0.0027717
0.028924
-0.00237461
0.029094
-0.00198942
0.0292332
-0.00156037
0.0293412
-0.00114799
0.0294178
-0.000771807
0.0294627
-0.000430617
-0.00012271
0.0294759
0.00714082
-0.0190942
-0.00611144
0.00816575
-0.0180811
0.00918655
-0.0170095
0.0101975
-0.0160083
0.0111983
-0.0152809
0.012188
-0.0146286
0.0131607
-0.0139262
0.0141219
-0.0134623
0.0150642
-0.0128796
0.0159871
-0.012379
0.0168932
-0.0119387
0.0177779
-0.0114657
0.0186365
-0.0110121
0.0194733
-0.0105966
0.0202866
-0.0101713
0.0210704
-0.0097557
0.0218255
-0.00936118
0.0225532
-0.00895989
0.0232522
-0.00855407
0.0239192
-0.00817007
0.0245537
-0.00780075
0.0251574
-0.00740778
0.0257297
-0.00701029
0.0262703
-0.0066077
0.0267761
-0.00625834
0.0272497
-0.00586406
0.027691
-0.00546145
0.0280997
-0.00505372
0.0284758
-0.00464052
0.028818
-0.00427669
0.0291276
-0.00386201
0.0294046
-0.00344128
0.0296489
-0.00301596
0.0298604
-0.00258608
0.030039
-0.00216809
0.0301853
-0.00170667
0.030299
-0.00126167
0.0303798
-0.000852578
0.0304275
-0.000478279
-0.000137167
0.0304419
0.00725311
-0.0201614
-0.00618592
0.00831517
-0.0191432
0.00937228
-0.0180666
0.0104189
-0.0170549
0.0114548
-0.0163168
0.0124787
-0.0156525
0.0134853
-0.0149327
0.0144794
-0.0144564
0.015454
-0.0138542
0.0164088
-0.0133337
0.0173459
-0.0128758
0.018261
-0.0123808
0.0191499
-0.0119011
0.0200163
-0.0114629
0.0208586
-0.0110136
0.0216711
-0.0105682
0.0224545
-0.0101446
0.0232098
-0.00971525
0.023936
-0.00928022
0.0246295
-0.0088636
0.0252899
-0.00846111
0.0259187
-0.00803659
0.0265153
-0.00760687
0.0270791
-0.00717151
0.0276071
-0.00678642
0.0281019
-0.00635878
0.0285631
-0.00592267
0.0289905
-0.00548117
0.029384
-0.00503398
0.0297421
-0.00463487
0.0300663
-0.00418621
0.0303565
-0.00373139
0.0306124
-0.00327188
0.0308341
-0.00280774
0.0310214
-0.00235541
0.0311748
-0.0018601
0.0312941
-0.00138098
0.031379
-0.000937456
0.0314293
-0.000528539
-0.000152715
0.0314448
0.00737413
-0.0212682
-0.00626725
0.00847521
-0.0202443
0.00957053
-0.0191619
0.0106548
-0.0181392
0.0117276
-0.0173895
0.0127876
-0.0167125
0.0138298
-0.0159749
0.0148585
-0.015485
0.0158672
-0.0148629
0.0168555
-0.014322
0.0178252
-0.0138456
0.0187723
-0.013328
0.0196928
-0.0128216
0.02059
-0.0123601
0.0214625
-0.0118861
0.0223047
-0.0114104
0.0231173
-0.0109572
0.0239011
-0.0104991
0.024655
-0.0100341
0.0253757
-0.00958426
0.0260625
-0.00914788
0.0267168
-0.00869093
0.027338
-0.00822805
0.0279254
-0.0077589
0.028476
-0.00733705
0.0289921
-0.00687489
0.0294735
-0.00640405
0.0299198
-0.00592749
0.0303308
-0.00544498
0.0307051
-0.00500919
0.031044
-0.00452511
0.0313474
-0.00403474
0.0316151
-0.00353956
0.031847
-0.00303964
0.032043
-0.0025514
0.0322035
-0.00202063
0.0323284
-0.00150584
0.0324172
-0.00102634
0.03247
-0.00058125
-0.000169165
0.0324864
0.00750379
-0.0224167
-0.00635532
0.00864579
-0.0213863
0.00978123
-0.0202974
0.010905
-0.019263
0.0120166
-0.0185011
0.0131146
-0.0178105
0.0141942
-0.0170546
0.0152593
-0.0165502
0.0163039
-0.0159075
0.0173273
-0.0153454
0.0183313
-0.0148496
0.0193119
-0.0143086
0.0202655
-0.0137751
0.0211948
-0.0132895
0.0220987
-0.0127899
0.0229717
-0.0122835
0.0238145
-0.0117999
0.0246277
-0.0113123
0.0254102
-0.0108166
0.0261587
-0.0103328
0.0268726
-0.0098617
0.027553
-0.00937136
0.0281992
-0.0088743
0.0288106
-0.0083703
0.0293842
-0.00791063
0.0299221
-0.00741274
0.0304239
-0.00690589
0.0308894
-0.00639295
0.0313181
-0.00587375
0.0317088
-0.00539985
0.0320626
-0.00487889
0.0323793
-0.00435147
0.0326588
-0.00381907
0.032901
-0.00328182
0.0331057
-0.00275609
0.0332733
-0.00218826
0.0334037
-0.00163619
0.0334964
-0.00111911
0.0335515
-0.000636254
-0.000186309
0.0335686
0.00764204
-0.0236087
-0.00645003
0.0088269
-0.0225711
0.0100044
-0.0214749
0.0111697
-0.0204283
0.0123219
-0.0196533
0.0134598
-0.0189484
0.0145787
-0.0181735
0.0156821
-0.0176535
0.0167642
-0.0169897
0.0178245
-0.0164057
0.0188644
-0.0158894
0.0198801
-0.0153243
0.0208682
-0.0147631
0.0218311
-0.0142525
0.0227677
-0.0137264
0.0236728
-0.0131886
0.0245469
-0.012674
0.0253905
-0.0121559
0.0262025
-0.0116286
0.0269796
-0.01111
0.0277212
-0.0106033
0.0284284
-0.0100785
0.0291003
-0.00954621
0.0297362
-0.00900623
0.0303332
-0.00850763
0.0308932
-0.00797274
0.0314159
-0.00742857
0.0319009
-0.00687788
0.0323477
-0.00632058
0.0327549
-0.0058071
0.0331238
-0.00524774
0.033454
-0.00468173
0.0337455
-0.00411055
0.0339981
-0.00353437
0.0342115
-0.00296951
0.0343862
-0.00236296
0.034522
-0.00177197
0.0346185
-0.00121567
0.0346757
-0.000693387
-0.000203933
0.0346933
0.00778887
-0.0248463
-0.00655134
0.00901857
-0.0238008
0.0102401
-0.0226964
0.0114488
-0.021637
0.0126436
-0.0208482
0.0138233
-0.020128
0.0149834
-0.0193336
0.0161269
-0.0187971
0.0172485
-0.0181113
0.0183474
-0.0175046
0.0194248
-0.0169669
0.0204773
-0.0163768
0.0215014
-0.0157872
0.0224995
-0.0152505
0.0234701
-0.014697
0.0244086
-0.0141271
0.0253151
-0.0135806
0.0261902
-0.013031
0.0270327
-0.012471
0.0278395
-0.0119167
0.0286097
-0.0113735
0.0293443
-0.0108132
0.0300426
-0.0102445
0.0307037
-0.0096673
0.0313246
-0.0091286
0.0319073
-0.00855538
0.0324512
-0.00797251
0.032956
-0.00738266
0.0334212
-0.00678579
0.0338453
-0.00623124
0.0342295
-0.00563191
0.0345735
-0.00502571
0.0348771
-0.00441413
0.0351401
-0.00379738
0.0353623
-0.0031917
0.0355441
-0.00254474
0.0356852
-0.00191313
0.0357855
-0.00131589
0.0358446
-0.000752484
-0.000221813
0.0358624
0.00794435
-0.0261313
-0.00665926
0.00922091
-0.0250774
0.0104885
-0.023964
0.0117426
-0.022891
0.0129821
-0.0220877
0.0142055
-0.0213514
0.0154087
-0.0205368
0.0165942
-0.0199826
0.0177571
-0.0192741
0.0188964
-0.0186439
0.0200132
-0.0180837
0.0211041
-0.0174678
0.0221659
-0.016849
0.0232005
-0.0162852
0.0242066
-0.0157032
0.0251798
-0.0151003
0.0261201
-0.0145209
0.0270279
-0.0139388
0.027902
-0.0133451
0.0287393
-0.0127541
0.0295391
-0.0121733
0.0303021
-0.0115762
0.0310274
-0.0109698
0.0317143
-0.0103542
0.0323599
-0.00977417
0.0329658
-0.00916123
0.0335315
-0.00853823
0.0340566
-0.00790773
0.0345405
-0.00726976
0.0349819
-0.0066726
0.0353817
-0.00603169
0.0357396
-0.00538366
0.0360555
-0.00472999
0.0363291
-0.00407097
0.0365601
-0.00342274
0.036749
-0.00273361
0.0368955
-0.00205961
0.0369993
-0.00141969
0.0370601
-0.000813378
-0.000239717
0.0370781
0.00810855
-0.0274661
-0.00677381
0.00943406
-0.0264029
0.0107498
-0.0252798
0.0120513
-0.0241926
0.0133375
-0.0233738
0.0146066
-0.0226206
0.0158549
-0.021785
0.0170844
-0.0212121
0.0182904
-0.0204801
0.019472
-0.0198254
0.02063
-0.0192417
0.0217611
-0.0185989
0.0228621
-0.01795
0.0239349
-0.017358
0.0249782
-0.0167464
0.0259875
-0.0161096
0.0269629
-0.0154963
0.0279046
-0.0148805
0.0288114
-0.0142519
0.0296805
-0.0136231
0.0305108
-0.0130036
0.031303
-0.0123685
0.0320563
-0.0117231
0.0327698
-0.0110677
0.0334407
-0.010445
0.0340704
-0.00979092
0.0346584
-0.00912628
0.0352043
-0.00845359
0.0357075
-0.00777293
0.0361664
-0.00713156
0.0365821
-0.0064474
0.0369543
-0.00575582
0.0372827
-0.00505834
0.037567
-0.00435527
0.0378069
-0.00366271
0.0380029
-0.00292959
0.0381547
-0.0022114
0.038262
-0.00152694
0.0383245
-0.0008759
-0.00025741
0.0383422
0.00828162
-0.0288526
-0.00689507
0.00965822
-0.0277795
0.0110242
-0.0266458
0.0123754
-0.0255437
0.0137102
-0.0247087
0.0150272
-0.0239376
0.0163225
-0.0230803
0.0175981
-0.0224877
0.0188492
-0.0217312
0.0200749
-0.0210511
0.0212758
-0.0204426
0.0224489
-0.019772
0.023591
-0.0190921
0.0247037
-0.0184707
0.0257856
-0.0178283
0.0268325
-0.0171566
0.0278444
-0.0165082
0.0288215
-0.0158576
0.0297623
-0.0151927
0.0306642
-0.014525
0.0315261
-0.0138655
0.0323486
-0.013191
0.0331308
-0.0125053
0.0338717
-0.0118086
0.0345686
-0.0111419
0.0352229
-0.0104451
0.0358339
-0.00973729
0.0364011
-0.00902079
0.0369239
-0.0082958
0.0374009
-0.00760856
0.0378329
-0.0068794
0.0382196
-0.0061425
0.0385607
-0.0053994
0.0388559
-0.00465047
0.0391049
-0.00391172
0.039308
-0.00313274
0.0394651
-0.00236845
0.0395757
-0.00163757
0.0396397
-0.000939885
-0.000274651
0.039657
0.0084637
-0.0302932
-0.00702312
0.00989361
-0.0292094
0.0113121
-0.0280643
0.012715
-0.0269465
0.0141007
-0.0260944
0.0154677
-0.0253046
0.0168122
-0.0244248
0.0181357
-0.0238112
0.0194339
-0.0230295
0.0207058
-0.0223229
0.0219516
-0.0216885
0.0231685
-0.0209888
0.0243534
-0.020277
0.0255077
-0.0196249
0.0266298
-0.0189505
0.027716
-0.0182428
0.0287659
-0.0175581
0.0297796
-0.0168712
0.0307558
-0.0161689
0.0316918
-0.0154609
0.0325865
-0.0147602
0.0334403
-0.0140448
0.0342524
-0.0133173
0.0350216
-0.0125779
0.0357455
-0.0118658
0.036425
-0.0111247
0.0370596
-0.0103719
0.0376488
-0.00960995
0.0381919
-0.00883891
0.0386874
-0.00810407
0.0391361
-0.0073281
0.0395376
-0.00654404
0.0398917
-0.00575344
0.040198
-0.00495676
0.0404562
-0.0041699
0.0406665
-0.0033431
0.0408288
-0.00253075
0.0409427
-0.00175148
0.041008
-0.00100517
-0.000291197
0.0410246
0.008655
-0.0317901
-0.00715808
0.0101405
-0.0306949
0.0116137
-0.0295375
0.0130706
-0.0284034
0.0145094
-0.0275333
0.0159286
-0.0267237
0.0173244
-0.0258206
0.018698
-0.0251849
0.0200455
-0.0243769
0.0213654
-0.0236429
0.0226581
-0.0229813
0.0239208
-0.0222515
0.0251503
-0.0215065
0.0263479
-0.0208225
0.0275121
-0.0201147
0.0286391
-0.0193698
0.0297286
-0.0186476
0.0307805
-0.0179231
0.0317934
-0.0171819
0.0327648
-0.0164323
0.0336935
-0.0156888
0.0345798
-0.0149312
0.0354227
-0.0141603
0.0362214
-0.0133765
0.036973
-0.0126174
0.0376786
-0.0118303
0.0383376
-0.011031
0.0389494
-0.0102217
0.0395134
-0.00940284
0.0400279
-0.0086186
0.0404937
-0.00779395
0.0409105
-0.00696081
0.0412778
-0.00612078
0.0415954
-0.00527436
0.0418629
-0.0044374
0.0420806
-0.00356076
0.0422482
-0.00269831
0.0423653
-0.00186859
0.0424317
-0.00107159
-0.0003068
0.0424473
0.00885575
-0.0333458
-0.00730011
0.0103992
-0.0322384
0.0119295
-0.0310679
0.0134427
-0.0299166
0.0149369
-0.0290275
0.0164105
-0.0281973
0.0178598
-0.0272699
0.0192858
-0.0266109
0.0206845
-0.0257756
0.0220547
-0.025013
0.0233963
-0.024323
0.0247067
-0.0235618
0.0259828
-0.0227826
0.0272255
-0.0220653
0.0284336
-0.0213227
0.0296031
-0.0205394
0.0307338
-0.0197783
0.0318254
-0.0190147
0.0328765
-0.0182331
0.0338847
-0.0174404
0.0348486
-0.0166528
0.0357687
-0.0158512
0.0366437
-0.0150353
0.0374727
-0.0142055
0.038253
-0.0133977
0.0389856
-0.0125629
0.0396699
-0.0117152
0.040305
-0.0108569
0.0408904
-0.00998824
0.0414245
-0.00915273
0.041908
-0.00827743
0.0423404
-0.00739322
0.0427214
-0.00650173
0.0430506
-0.00560353
0.0433276
-0.0047144
0.0435526
-0.00378582
0.0437255
-0.00287115
0.0438458
-0.00198885
0.0439132
-0.00113901
-0.00032122
0.0439276
0.00906618
-0.0349626
-0.00744937
0.01067
-0.0338422
0.0122599
-0.0326577
0.0138318
-0.0314884
0.0153838
-0.0305795
0.016914
-0.0297275
0.0184191
-0.028775
0.0198998
-0.0280915
0.021352
-0.0272278
0.0227745
-0.0264355
0.0241672
-0.0257157
0.0255273
-0.0249219
0.0268519
-0.0241073
0.0281418
-0.0233552
0.0293955
-0.0225763
0.0306094
-0.0217533
0.0317829
-0.0209519
0.0329158
-0.0201476
0.0340068
-0.019324
0.0350531
-0.0184868
0.0360537
-0.0176534
0.0370087
-0.0168062
0.037917
-0.0159435
0.0387775
-0.015066
0.0395876
-0.0142079
0.0403482
-0.0133235
0.0410584
-0.0124255
0.0417177
-0.0115161
0.0423253
-0.0105958
0.0428796
-0.00970707
0.0433813
-0.00877908
0.0438298
-0.00784172
0.0442247
-0.00689668
0.0445658
-0.00594456
0.0448525
-0.00500112
0.0450851
-0.00401841
0.0452632
-0.00304931
0.0453866
-0.0021122
0.0454548