/*--------------------------------*- C++ -*----------------------------------*\
| =========                 |                                                 |
| \\      /  F ield         | OpenFOAM: The Open Source CFD Toolbox           |
|  \\    /   O peration     | Version:  3.0.1                                 |
|   \\  /    A nd           | Web:      www.OpenFOAM.org                      |
|    \\/     M anipulation  |                                                 |
\*---------------------------------------------------------------------------*/
FoamFile
{
    version     2.0;
    format      ascii;
    class       volVectorField;
    location    "400";
    object      U;
}
// * * * * * * * * * * * * * * * * * * * * * * * * * * * * * * * * * * * * * //

dimensions      [0 1 -1 0 0 0 0];

internalField   nonuniform List<vector> 
58000
(
(0.304297 1.16999 2.0014e-21)
(0.449346 1.29575 -1.73752e-20)
(0.598939 1.33626 1.96081e-20)
(0.726409 1.29392 -2.99531e-20)
(0.826734 1.20797 -5.98473e-20)
(0.905357 1.10306 0)
(0.967261 0.997976 -3.38569e-20)
(1.01399 0.896042 -5.70299e-22)
(1.05173 0.802246 3.84791e-20)
(1.08203 0.722103 0)
(1.10646 0.652605 4.1573e-20)
(1.12725 0.592794 3.94143e-20)
(1.14638 0.544675 -1.25749e-19)
(1.16036 0.504838 4.3871e-20)
(1.17054 0.470774 3.91869e-20)
(1.17841 0.442199 7.85233e-20)
(1.18401 0.418252 -1.1524e-19)
(1.18796 0.397281 0)
(1.19071 0.37798 7.27316e-20)
(1.19257 0.359953 -1.07818e-19)
(1.19359 0.343462 9.0384e-22)
(1.19372 0.328084 3.50434e-20)
(1.19338 0.313304 1.65916e-20)
(1.19213 0.298576 0)
(1.19069 0.284489 3.13911e-20)
(1.18835 0.271208 -1.54952e-20)
(1.18564 0.258386 0)
(1.18265 0.245848 2.99943e-22)
(1.17895 0.233327 0)
(1.17519 0.221332 -1.43357e-20)
(1.17084 0.209991 6.99829e-20)
(1.1663 0.198987 -6.94851e-20)
(1.16159 0.188195 -4.08204e-20)
(1.15649 0.177482 1.07111e-19)
(1.15113 0.166982 -2.65774e-20)
(1.14332 0.156589 -1.30562e-20)
(1.13208 0.146659 1.94389e-20)
(1.12056 0.13795 -1.24851e-20)
(1.1104 0.130515 1.86298e-20)
(1.10932 0.125653 0)
(0.548737 0.76759 -7.46573e-21)
(0.662503 0.843535 0)
(0.778082 0.90028 3.18982e-23)
(0.890428 0.952708 -3.23096e-23)
(0.9948 0.985119 3.63484e-20)
(1.089 0.993651 2.94111e-20)
(1.1689 0.982142 -5.60063e-20)
(1.23602 0.954488 1.60332e-20)
(1.29043 0.914074 7.60267e-20)
(1.33111 0.867451 -4.14785e-20)
(1.36102 0.816377 0)
(1.38129 0.763212 -7.51594e-20)
(1.39254 0.712978 5.01817e-20)
(1.39836 0.666417 2.69345e-20)
(1.40027 0.621871 -2.68991e-20)
(1.39949 0.581288 0)
(1.39707 0.545428 2.64833e-20)
(1.39359 0.512618 0)
(1.38937 0.481862 1.00574e-19)
(1.38481 0.453595 -1.50498e-19)
(1.3802 0.428267 0)
(1.37547 0.404861 1.21422e-19)
(1.37058 0.382546 -9.64499e-20)
(1.36542 0.361051 0)
(1.36033 0.341206 -3.46769e-20)
(1.35524 0.322953 0)
(1.34997 0.305398 0)
(1.34451 0.288364 3.31628e-20)
(1.33874 0.271745 0)
(1.33298 0.256167 -3.22101e-20)
(1.32722 0.241618 4.26322e-20)
(1.32128 0.227478 -4.15483e-20)
(1.31512 0.213626 3.09613e-20)
(1.30869 0.200008 -2.04385e-20)
(1.30201 0.186852 0)
(1.29507 0.17434 -2.98899e-20)
(1.28793 0.162945 1.97082e-20)
(1.28088 0.152966 0)
(1.27445 0.143898 -4.84835e-21)
(1.26945 0.136117 9.49199e-21)
(0.567692 0.697366 2.01867e-21)
(0.621537 0.759576 -6.84038e-22)
(0.688168 0.811644 9.93138e-22)
(0.763476 0.851506 1.01523e-21)
(0.842441 0.878902 -1.05947e-21)
(0.923646 0.894784 -1.62367e-20)
(1.00064 0.898726 2.04871e-20)
(1.07401 0.891087 0)
(1.14079 0.873132 -2.7784e-20)
(1.19748 0.846828 2.54343e-20)
(1.24635 0.813484 3.14513e-20)
(1.28691 0.775336 -1.74145e-21)
(1.3177 0.735842 0)
(1.3413 0.695901 7.01151e-20)
(1.35944 0.65567 -3.66273e-20)
(1.37219 0.617581 0)
(1.38058 0.582617 0)
(1.38596 0.549796 0)
(1.38911 0.518677 -1.81582e-20)
(1.39045 0.48987 1.92736e-20)
(1.39042 0.463715 0)
(1.3894 0.439329 1.79046e-20)
(1.38763 0.416091 0)
(1.38521 0.393856 0)
(1.38232 0.373299 3.57446e-20)
(1.37907 0.354199 -7.0313e-20)
(1.37542 0.335801 7.0338e-20)
(1.37143 0.318034 1.68009e-20)
(1.36711 0.300833 -3.43897e-20)
(1.3626 0.284692 -2.51456e-20)
(1.35792 0.269482 0)
(1.35297 0.254691 1.61597e-20)
(1.34777 0.240288 0)
(1.3423 0.226261 3.03151e-22)
(1.33663 0.212824 -2.37182e-20)
(1.33068 0.200023 1.59428e-20)
(1.32442 0.18783 0)
(1.3181 0.176344 0)
(1.31199 0.16536 -3.8091e-21)
(1.30653 0.154521 -4.00676e-21)
(0.643741 0.625767 3.31507e-21)
(0.680809 0.67169 7.70489e-22)
(0.723509 0.714685 -1.37697e-21)
(0.772634 0.751964 -5.99317e-24)
(0.827056 0.780911 3.45934e-21)
(0.885981 0.801122 0)
(0.945572 0.81177 -8.50062e-21)
(1.00505 0.813654 0)
(1.06283 0.807248 -1.62837e-20)
(1.11548 0.793478 -3.29405e-21)
(1.16388 0.773238 -2.08652e-20)
(1.20717 0.747703 1.99364e-20)
(1.24317 0.719153 -2.5413e-20)
(1.27309 0.688417 -5.1605e-20)
(1.29823 0.65582 -2.72306e-20)
(1.31799 0.62336 2.80516e-20)
(1.33289 0.592158 -2.6471e-20)
(1.34431 0.561836 0)
(1.353 0.532323 -1.25593e-20)
(1.35922 0.504389 -5.6913e-20)
(1.36334 0.478528 5.70985e-20)
(1.36594 0.454105 -1.46677e-20)
(1.36739 0.430644 0)
(1.36786 0.408074 0)
(1.36745 0.38706 4.1488e-20)
(1.36634 0.367437 -5.58532e-20)
(1.36465 0.348513 5.49926e-20)
(1.36244 0.330214 -5.41026e-22)
(1.35974 0.312483 -1.08614e-19)
(1.35667 0.295789 6.79353e-20)
(1.3533 0.280032 -2.64818e-20)
(1.34959 0.264725 -1.32266e-20)
(1.34553 0.249839 5.23779e-20)
(1.34115 0.235354 -1.94448e-20)
(1.33653 0.221481 6.57473e-21)
(1.33169 0.208268 -6.2469e-21)
(1.32662 0.195557 -6.19697e-21)
(1.3214 0.183336 0)
(1.31615 0.171546 3.07622e-21)
(1.31113 0.160182 -3.20321e-21)
(0.685775 0.580622 -1.47981e-21)
(0.712473 0.616897 -2.09772e-21)
(0.743178 0.6525 -1.72207e-23)
(0.778861 0.685628 -3.03656e-22)
(0.819566 0.713886 -1.14664e-21)
(0.865212 0.736338 0)
(0.913231 0.751287 3.53783e-21)
(0.962931 0.758956 3.33807e-21)
(1.01293 0.759517 0)
(1.06032 0.753172 1.04442e-20)
(1.10558 0.740714 1.22268e-20)
(1.14777 0.722993 0)
(1.18457 0.701495 -1.81049e-20)
(1.21664 0.677006 1.93041e-20)
(1.24494 0.64999 0)
(1.26847 0.622078 -3.82338e-20)
(1.28732 0.594327 1.04434e-19)
(1.30269 0.566655 5.3463e-22)
(1.31524 0.539165 -2.04969e-20)
(1.32502 0.512664 0)
(1.3323 0.487718 0)
(1.33773 0.46388 0)
(1.34173 0.440803 2.16624e-20)
(1.34451 0.418484 0)
(1.34611 0.397576 0)
(1.34675 0.377943 0)
(1.34664 0.358964 3.33379e-20)
(1.34589 0.340586 -4.43345e-20)
(1.34453 0.322772 5.43129e-20)
(1.34265 0.305966 -3.31541e-20)
(1.34033 0.290062 0)
(1.33759 0.274609 0)
(1.33447 0.259584 -1.07942e-20)
(1.33097 0.244976 3.19835e-20)
(1.32717 0.230982 -2.37554e-22)
(1.32314 0.21763 -2.6039e-20)
(1.31887 0.204718 1.57182e-20)
(1.31437 0.19219 0)
(1.30968 0.180041 0)
(1.3049 0.168318 -5.15952e-21)
(0.722877 0.545046 0)
(0.743574 0.574197 1.51489e-21)
(0.766671 0.603494 1.53356e-21)
(0.793321 0.631917 1.54509e-22)
(0.824139 0.657707 -1.34021e-21)
(0.859569 0.680058 2.51634e-21)
(0.898131 0.697014 1.96441e-21)
(0.939285 0.708416 7.38862e-21)
(0.982045 0.713957 1.22298e-21)
(1.02393 0.713285 -1.56507e-20)
(1.06512 0.707024 -4.7445e-22)
(1.10471 0.695687 -3.19262e-20)
(1.14047 0.680174 4.71661e-20)
(1.17265 0.661217 -2.50241e-20)
(1.20197 0.639317 2.8594e-20)
(1.22727 0.615756 -2.73964e-20)
(1.24834 0.591502 0)
(1.26619 0.56667 0)
(1.28132 0.541465 0)
(1.29364 0.516683 0)
(1.30329 0.492935 -1.81217e-20)
(1.31092 0.469945 -1.70838e-20)
(1.31697 0.447478 5.26727e-20)
(1.32162 0.425586 -3.56938e-20)
(1.32488 0.404914 0)
(1.32699 0.385376 1.7409e-20)
(1.32822 0.36643 -2.65374e-20)
(1.32868 0.348037 3.59838e-20)
(1.32844 0.330176 -6.21313e-20)
(1.32755 0.313271 1.79352e-20)
(1.32611 0.297233 -3.52223e-20)
(1.32419 0.281641 3.54079e-20)
(1.32182 0.266474 -4.17812e-22)
(1.31903 0.251722 8.92991e-21)
(1.31589 0.237567 0)
(1.31247 0.224037 0)
(1.30877 0.210924 -8.52324e-21)
(1.30479 0.198166 8.56886e-21)
(1.30057 0.185785 0)
(1.29614 0.173859 -4.09667e-21)
(0.75163 0.516773 8.05143e-22)
(0.768631 0.540845 -9.51469e-22)
(0.7872 0.56528 -2.2065e-22)
(0.808266 0.589479 1.19146e-22)
(0.832535 0.612226 -1.02521e-21)
(0.860656 0.63302 -2.51904e-21)
(0.89188 0.650083 -2.51117e-21)
(0.925938 0.663147 -9.24055e-22)
(0.962243 0.671666 0)
(0.9988 0.674899 0)
(1.03567 0.673272 5.78362e-21)
(1.07205 0.667 0)
(1.10586 0.65648 0)
(1.13713 0.642332 -1.96774e-20)
(1.16636 0.625047 1.03338e-20)
(1.1923 0.605582 -2.16014e-20)
(1.21456 0.584781 1.20594e-20)
(1.23394 0.562888 0)
(1.25083 0.540167 1.24389e-20)
(1.265 0.517365 1.42255e-20)
(1.27648 0.495108 -2.85383e-20)
(1.28587 0.47326 4.27972e-20)
(1.29359 0.451683 1.53228e-22)
(1.29982 0.430475 -2.87737e-20)
(1.3045 0.410273 1.50161e-20)
(1.30788 0.391039 -2.92914e-20)
(1.31028 0.37231 -2.93852e-20)
(1.31181 0.354067 -1.432e-20)
(1.31254 0.336304 1.51124e-20)
(1.31253 0.319435 -3.60948e-20)
(1.31187 0.303383 5.85489e-20)
(1.31066 0.287758 -2.39464e-22)
(1.30895 0.272548 -5.84038e-20)
(1.30678 0.257741 7.49407e-21)
(1.3042 0.243512 0)
(1.30128 0.229888 2.13508e-20)
(1.29804 0.216667 -7.40268e-21)
(1.29448 0.203786 0)
(1.29062 0.191279 3.51702e-21)
(1.28648 0.179229 3.82517e-21)
(0.775398 0.493356 -8.75812e-22)
(0.789833 0.513634 2.5452e-22)
(0.805344 0.534311 1.95207e-22)
(0.822672 0.555005 3.59628e-24)
(0.842461 0.574853 1.60223e-22)
(0.865362 0.593591 2.15805e-21)
(0.891032 0.609742 -1.2153e-21)
(0.919394 0.623071 2.38738e-21)
(0.950176 0.632998 -2.49199e-21)
(0.981854 0.638605 0)
(1.01447 0.640164 3.30741e-21)
(1.04737 0.63767 -1.1512e-20)
(1.07871 0.631131 6.03794e-21)
(1.10837 0.62103 -2.14119e-20)
(1.13669 0.607798 2.50678e-20)
(1.16245 0.592087 -2.51597e-20)
(1.18512 0.574596 2.78023e-20)
(1.20531 0.555638 0)
(1.22329 0.535501 -1.08182e-20)
(1.23875 0.514855 1.12299e-20)
(1.2516 0.494307 -1.15573e-20)
(1.26237 0.473832 2.27834e-20)
(1.27147 0.453379 -4.63089e-20)
(1.27902 0.433081 2.3408e-20)
(1.28493 0.413552 1.23643e-20)
(1.28944 0.394804 1.24211e-20)
(1.29289 0.376454 -2.42137e-20)
(1.29539 0.358505 4.88273e-20)
(1.29701 0.340968 0)
(1.2978 0.324241 3.70489e-20)
(1.29786 0.308268 -3.64193e-20)
(1.29731 0.292694 2.43647e-20)
(1.29622 0.277511 -1.82636e-20)
(1.2946 0.262712 6.25096e-21)
(1.29252 0.248466 5.9354e-21)
(1.29006 0.234801 -2.94115e-22)
(1.28724 0.221525 -6.19041e-21)
(1.28406 0.208582 0)
(1.28053 0.19601 -2.97216e-21)
(1.27667 0.183893 3.12264e-21)
(0.795198 0.473472 0)
(0.807789 0.490847 0)
(0.821158 0.508587 -1.70772e-21)
(0.835888 0.526437 5.3372e-22)
(0.852535 0.543755 1.51777e-22)
(0.871682 0.560425 -1.93196e-21)
(0.893193 0.575252 2.75899e-21)
(0.917101 0.588076 0)
(0.94334 0.598376 0)
(0.970772 0.605214 -5.88964e-21)
(0.999459 0.608768 -8.47204e-21)
(1.02891 0.608902 -2.28159e-23)
(1.05756 0.605359 1.51538e-20)
(1.0852 0.598487 -3.21086e-21)
(1.1121 0.588643 -9.9308e-21)
(1.13708 0.576216 0)
(1.15954 0.561753 0)
(1.17994 0.545587 0)
(1.19847 0.527998 0)
(1.21471 0.509562 -1.74274e-20)
(1.22851 0.490843 1.76477e-20)
(1.24032 0.471902 2.74392e-20)
(1.2505 0.452751 -3.78808e-20)
(1.25913 0.433547 9.88058e-21)
(1.26609 0.41487 0)
(1.27157 0.396782 -1.99652e-20)
(1.27595 0.378971 2.01368e-20)
(1.27933 0.361461 -1.05102e-20)
(1.28177 0.344282 0)
(1.2833 0.327817 -1.05331e-20)
(1.28403 0.312031 1.06776e-20)
(1.2841 0.296605 4.12399e-20)
(1.28358 0.281536 -4.13025e-20)
(1.28249 0.266827 2.06989e-20)
(1.28089 0.252637 -5.28948e-21)
(1.27886 0.238999 -2.55554e-20)
(1.27643 0.225735 1.03135e-20)
(1.2736 0.212794 5.09077e-21)
(1.27039 0.200216 -7.65191e-21)
(1.2668 0.188082 2.65399e-21)
(0.811986 0.456255 0)
(0.823177 0.471347 0)
(0.83496 0.486755 1.01695e-21)
(0.8478 0.502295 -5.33893e-22)
(0.862166 0.517472 1.0919e-22)
(0.878558 0.532252 1.12921e-21)
(0.896937 0.54567 -2.00885e-21)
(0.917391 0.557636 -1.25073e-21)
(0.939969 0.567714 4.07686e-21)
(0.963824 0.575027 -4.42965e-21)
(0.98905 0.579704 -1.1011e-22)
(1.0153 0.581547 6.88829e-23)
(1.04126 0.580145 5.89449e-21)
(1.06673 0.575737 9.03486e-21)
(1.09191 0.568605 1.10714e-20)
(1.11571 0.558933 -1.49828e-22)
(1.13751 0.54712 -1.08893e-20)
(1.15766 0.533488 0)
(1.17626 0.518289 -1.25731e-20)
(1.19286 0.502003 1.33318e-20)
(1.20723 0.485133 -1.47801e-20)
(1.21975 0.467796 7.78403e-21)
(1.23072 0.450047 2.9531e-22)
(1.24019 0.432058 8.56598e-21)
(1.24799 0.414366 -1.63263e-20)
(1.25431 0.397071 0)
(1.25949 0.379931 2.51365e-20)
(1.26363 0.362986 -4.25497e-20)
(1.26681 0.346283 3.44733e-20)
(1.26902 0.330189 -2.63832e-20)
(1.27036 0.314688 -1.74113e-20)
(1.27102 0.299501 1.75502e-20)
(1.27103 0.284631 1.7524e-20)
(1.27044 0.270087 -1.7631e-20)
(1.2693 0.256024 8.76343e-21)
(1.26768 0.242479 1.99791e-22)
(1.26562 0.22929 0)
(1.26313 0.216408 0)
(1.26024 0.203879 4.26312e-21)
(1.25692 0.191775 0)
(0.826398 0.441116 7.3851e-22)
(0.836489 0.454376 1.28027e-22)
(0.847051 0.467898 -1.30225e-22)
(0.858461 0.481548 2.58577e-24)
(0.871113 0.494927 0)
(0.885428 0.508048 -3.76341e-22)
(0.901415 0.520123 6.32761e-22)
(0.91918 0.531111 -6.44137e-22)
(0.938828 0.540662 2.2533e-21)
(0.959726 0.547989 -2.71823e-21)
(0.981987 0.553198 4.20232e-21)
(1.00537 0.556076 0)
(1.02882 0.55614 -5.42115e-21)
(1.05213 0.553542 1.61225e-21)
(1.07546 0.548506 1.57934e-20)
(1.09785 0.541063 -1.69759e-20)
(1.11871 0.531488 2.80815e-20)
(1.13827 0.520073 -9.68686e-21)
(1.15658 0.507034 1.13052e-20)
(1.17318 0.492752 -1.19925e-20)
(1.18779 0.477666 0)
(1.20072 0.461923 1.30817e-20)
(1.21221 0.445605 1.25108e-20)
(1.22228 0.428887 0)
(1.23074 0.412261 0)
(1.23772 0.395853 1.35592e-20)
(1.24357 0.37948 6.93232e-21)
(1.24837 0.363198 -6.96063e-21)
(1.25218 0.347067 1.42115e-20)
(1.25499 0.331435 2.20157e-20)
(1.2569 0.316308 -1.48855e-20)
(1.25808 0.301442 0)
(1.25859 0.286848 -1.50143e-20)
(1.25847 0.27254 1.51117e-20)
(1.25776 0.258672 7.53027e-21)
(1.25652 0.245283 -5.6629e-23)
(1.25482 0.232227 -7.59174e-21)
(1.25266 0.219461 0)
(1.25007 0.20703 -1.12181e-20)
(1.24702 0.195004 0)
(0.838904 0.427641 -8.865e-22)
(0.848105 0.439402 8.94113e-22)
(0.857695 0.451377 6.00058e-22)
(0.867986 0.463463 -4.13744e-22)
(0.879308 0.475331 -8.94907e-23)
(0.892018 0.487017 3.46252e-22)
(0.906142 0.497869 6.96181e-22)
(0.921789 0.507881 -1.14484e-21)
(0.939088 0.516771 -2.68277e-22)
(0.957553 0.523851 2.26463e-21)
(0.977309 0.529216 -6.24059e-21)
(0.998204 0.53266 -6.32485e-22)
(1.01937 0.533681 1.3922e-20)
(1.04063 0.532374 -9.86906e-21)
(1.06212 0.528915 -6.41158e-21)
(1.08303 0.523231 7.70907e-21)
(1.10276 0.515498 -1.52248e-20)
(1.12151 0.505967 -7.79289e-21)
(1.13927 0.494819 1.80873e-20)
(1.15561 0.482347 -1.83782e-20)
(1.17019 0.46892 0)
(1.18327 0.454701 0)
(1.19504 0.439784 -8.74792e-22)
(1.2055 0.424341 0)
(1.21441 0.408812 0)
(1.2219 0.393342 -1.23187e-20)
(1.22828 0.377798 -1.17436e-20)
(1.23361 0.362246 -1.19766e-20)
(1.23796 0.346758 1.1743e-20)
(1.24129 0.33166 -6.8932e-21)
(1.24369 0.316978 -3.5648e-22)
(1.24535 0.302502 1.28778e-20)
(1.24631 0.288249 0)
(1.24661 0.274241 1.92997e-20)
(1.24629 0.260627 -1.3086e-20)
(1.24542 0.247451 -1.28869e-20)
(1.24406 0.23458 6.56928e-21)
(1.24222 0.22198 -3.25846e-21)
(1.23992 0.209695 9.99262e-21)
(1.23713 0.197789 0)
(0.849858 0.415527 5.82712e-22)
(0.85832 0.426042 -3.63752e-22)
(0.867116 0.436729 -1.44394e-22)
(0.876504 0.447507 3.59446e-22)
(0.886765 0.458098 1.12288e-22)
(0.898201 0.468549 2.00515e-22)
(0.910845 0.478312 -8.50639e-22)
(0.924799 0.487403 1.97603e-21)
(0.940196 0.495597 -2.90726e-21)
(0.956658 0.502294 -2.08271e-21)
(0.974311 0.507585 2.64012e-21)
(0.993062 0.511283 -3.31165e-21)
(1.0122 0.512898 6.89121e-21)
(1.03158 0.512485 4.55366e-21)
(1.05133 0.510187 9.86272e-21)
(1.07074 0.505864 5.98831e-22)
(1.08928 0.499615 -6.51991e-21)
(1.10709 0.491655 2.75106e-20)
(1.12414 0.482125 -3.61803e-20)
(1.14 0.471247 3.13545e-20)
(1.15435 0.459324 -8.29885e-21)
(1.16738 0.44652 0)
(1.17922 0.432934 -7.32683e-22)
(1.18988 0.418726 0)
(1.19908 0.404286 0)
(1.20692 0.389769 0)
(1.2137 0.375083 7.0584e-22)
(1.21945 0.3603 3.22156e-20)
(1.22423 0.345499 -3.24994e-20)
(1.22799 0.330987 -3.3968e-22)
(1.23081 0.316804 -2.23648e-20)
(1.23289 0.302771 1.11215e-20)
(1.23424 0.288913 -1.09299e-20)
(1.23493 0.275257 -1.70846e-20)
(1.23497 0.261947 -5.51704e-21)
(1.23443 0.249032 1.13783e-20)
(1.23338 0.236394 0)
(1.23183 0.224005 -5.5572e-21)
(1.22982 0.211907 -6.96894e-21)
(1.22728 0.200161 1.46208e-21)
(0.859529 0.404545 5.22942e-22)
(0.867366 0.414012 0)
(0.875497 0.423613 -1.10525e-21)
(0.88414 0.433284 3.21551e-22)
(0.893532 0.442789 8.33801e-23)
(0.903934 0.452175 9.91282e-24)
(0.915377 0.460979 0)
(0.927956 0.469227 -8.53878e-22)
(0.941796 0.476739 1.25838e-21)
(0.956597 0.482993 -1.78481e-21)
(0.972483 0.488078 -2.33194e-21)
(0.989398 0.491828 -4.3625e-22)
(1.00676 0.493781 -4.10143e-22)
(1.02445 0.49397 0)
(1.04259 0.49251 -1.2841e-20)
(1.06056 0.489224 1.36253e-20)
(1.07791 0.484155 0)
(1.09471 0.477483 -1.13112e-20)
(1.11095 0.469319 6.42373e-21)
(1.12621 0.459821 -1.35302e-20)
(1.14018 0.449234 6.36734e-21)
(1.15298 0.437716 0)
(1.16475 0.425363 7.70511e-21)
(1.17543 0.412322 -8.14181e-21)
(1.18478 0.398935 0)
(1.19283 0.385359 -1.74881e-20)
(1.19988 0.371533 1.827e-20)
(1.20594 0.357533 9.49401e-21)
(1.21105 0.343443 -1.845e-20)
(1.21515 0.329548 0)
(1.21833 0.315901 2.85071e-22)
(1.22075 0.302351 -1.90355e-20)
(1.22245 0.288927 1.00502e-20)
(1.22346 0.275664 0)
(1.22382 0.262699 5.08383e-21)
(1.22359 0.250085 -5.10192e-21)
(1.22283 0.237719 4.846e-21)
(1.22155 0.225577 5.12453e-21)
(1.21979 0.213703 9.97916e-21)
(1.21749 0.202152 4.94384e-21)
(0.868126 0.394522 0)
(0.875424 0.403094 0)
(0.882989 0.411769 3.27815e-23)
(0.891002 0.420496 -5.81496e-22)
(0.89967 0.429068 -1.26931e-25)
(0.909215 0.437533 1.2647e-22)
(0.919666 0.445494 0)
(0.931108 0.452982 0)
(0.943658 0.45985 1.13727e-21)
(0.95707 0.465646 -1.1652e-21)
(0.971463 0.470454 4.35332e-22)
(0.986805 0.474131 -1.90491e-21)
(1.00262 0.476249 0)
(1.0188 0.476827 0)
(1.03547 0.475961 6.4699e-21)
(1.0521 0.473456 -7.38263e-21)
(1.06828 0.469316 7.27199e-22)
(1.08407 0.463691 5.69705e-21)
(1.09945 0.456664 -9.9697e-21)
(1.11404 0.448345 0)
(1.12751 0.438929 5.74612e-21)
(1.13998 0.428563 6.08521e-21)
(1.15154 0.417334 0)
(1.16213 0.405376 6.86818e-21)
(1.17149 0.392985 -1.42973e-20)
(1.17965 0.380316 0)
(1.18685 0.367332 7.9686e-21)
(1.19311 0.35411 -7.7107e-21)
(1.19846 0.340736 2.37858e-20)
(1.20283 0.327473 0)
(1.20628 0.314383 1.66538e-20)
(1.20899 0.301341 8.68606e-21)
(1.21097 0.28838 8.28089e-21)
(1.21227 0.275539 -8.5712e-21)
(1.21291 0.26295 8.65544e-21)
(1.21295 0.250669 0)
(1.21244 0.238606 -4.48797e-21)
(1.21141 0.226743 0)
(1.20989 0.215123 -4.50091e-21)
(1.2078 0.203798 -4.55835e-21)
(0.875814 0.38532 3.23655e-22)
(0.882643 0.393122 -4.50335e-22)
(0.889716 0.400999 9.67271e-22)
(0.897189 0.408913 2.66409e-22)
(0.90524 0.416678 -8.21131e-23)
(0.914061 0.424343 -2.27898e-22)
(0.923678 0.431561 1.11834e-22)
(0.934166 0.438368 -1.06887e-21)
(0.945632 0.444642 -6.22487e-22)
(0.957871 0.449988 -9.83829e-22)
(0.970994 0.454488 2.78966e-22)
(0.984985 0.458015 3.83771e-21)
(0.999444 0.460183 -3.93611e-21)
(1.01429 0.461 -5.38901e-22)
(1.02963 0.460546 -6.31835e-22)
(1.04503 0.458624 1.37191e-20)
(1.0601 0.455211 -6.92496e-21)
(1.07491 0.450429 7.72861e-21)
(1.08942 0.444343 -9.08652e-21)
(1.10329 0.437023 6.46669e-23)
(1.11621 0.428623 -5.3337e-21)
(1.12827 0.419274 5.41977e-21)
(1.13952 0.409058 -1.66601e-22)
(1.14992 0.39809 0)
(1.15919 0.386628 0)
(1.16735 0.374819 -1.25163e-20)
(1.17461 0.362645 -6.46174e-21)
(1.18099 0.350181 -6.64796e-21)
(1.1865 0.337513 -4.48438e-22)
(1.19105 0.324883 -2.13422e-20)
(1.19472 0.31236 6.97645e-21)
(1.19765 0.299839 0)
(1.19986 0.28736 -1.51613e-20)
(1.2014 0.274961 1.48491e-20)
(1.20228 0.26277 0)
(1.20254 0.250847 7.62578e-21)
(1.20226 0.239112 -3.8677e-21)
(1.20145 0.227552 -7.70409e-21)
(1.20014 0.216211 5.79407e-21)
(1.19825 0.205136 -5.74407e-21)
(0.882727 0.376829 0)
(0.88914 0.383962 0)
(0.895782 0.391146 -7.41034e-22)
(0.902783 0.398352 0)
(0.910301 0.405416 0)
(0.918501 0.41238 -9.27317e-23)
(0.927406 0.418944 9.5064e-23)
(0.937082 0.425143 1.00674e-21)
(0.947625 0.430874 1.48981e-21)
(0.958863 0.435793 2.91097e-21)
(0.970896 0.439974 3.79076e-21)
(0.98372 0.44331 3.27673e-21)
(0.996997 0.445452 -2.93753e-21)
(1.01066 0.446401 1.79454e-22)
(1.02482 0.446228 -4.59469e-21)
(1.03908 0.444738 1.12151e-20)
(1.05312 0.441889 -5.95468e-21)
(1.06698 0.437786 6.62689e-21)
(1.08064 0.432474 0)
(1.09378 0.425996 1.69752e-20)
(1.10612 0.418471 -1.70293e-20)
(1.1177 0.410016 -9.01812e-21)
(1.12859 0.400702 -1.98378e-20)
(1.13872 0.390632 -5.24234e-22)
(1.14783 0.380025 -3.21959e-22)
(1.15591 0.369021 2.27674e-20)
(1.16316 0.357615 6.02244e-21)
(1.16957 0.34588 1.78057e-20)
(1.17516 0.333897 -1.82193e-20)
(1.17984 0.321892 6.48473e-21)
(1.18365 0.309934 1.27901e-20)
(1.18675 0.297939 -1.29098e-20)
(1.18915 0.285949 0)
(1.19088 0.274003 -6.83177e-21)
(1.19195 0.262226 0)
(1.19241 0.250677 1.67423e-22)
(1.19232 0.239288 -6.79272e-21)
(1.19171 0.228051 0)
(1.19059 0.217008 6.64455e-21)
(1.18888 0.206205 1.86818e-22)
(0.888971 0.36896 6.12874e-22)
(0.895014 0.375506 -9.6207e-23)
(0.901271 0.382085 1.21652e-22)
(0.907856 0.388671 -2.05795e-24)
(0.914906 0.395119 2.54453e-22)
(0.922566 0.401469 8.02134e-23)
(0.930854 0.407454 2.45548e-22)
(0.93983 0.413109 4.68553e-22)
(0.949579 0.418348 7.12297e-22)
(0.959953 0.422866 -2.45694e-21)
(0.971044 0.426734 -2.19522e-21)
(0.982853 0.429859 0)
(0.995093 0.431926 6.27861e-21)
(1.00771 0.432934 7.3901e-23)
(1.0208 0.432945 -7.99667e-21)
(1.03403 0.431771 -5.02002e-21)
(1.04711 0.429361 5.17485e-21)
(1.06009 0.425803 5.69898e-21)
(1.07293 0.421128 -6.26312e-21)
(1.08535 0.415357 0)
(1.09708 0.408583 7.9327e-21)
(1.10817 0.400908 8.9059e-21)
(1.11866 0.392395 9.97129e-22)
(1.12846 0.383132 -2.69461e-20)
(1.13734 0.373307 -9.17349e-21)
(1.14528 0.36305 0)
(1.15245 0.352365 1.02832e-20)
(1.15884 0.341321 -2.12463e-20)
(1.16445 0.329997 1.11184e-20)
(1.16919 0.318598 -3.78358e-22)
(1.1731 0.307197 1.08025e-20)
(1.17631 0.295724 2.24651e-20)
(1.17885 0.284223 -5.63077e-21)
(1.18073 0.272736 0)
(1.18196 0.261381 -5.75923e-21)
(1.18258 0.250216 6.14444e-21)
(1.18266 0.239186 0)
(1.1822 0.228285 5.87369e-21)
(1.18125 0.217555 -7.73124e-21)
(1.17971 0.20704 4.62421e-21)
(0.894636 0.36164 0)
(0.900344 0.367669 0)
(0.906255 0.373713 -2.56731e-22)
(0.912469 0.379754 -1.82165e-24)
(0.919104 0.385659 -3.54269e-22)
(0.926287 0.391465 0)
(0.934035 0.396937 4.13877e-22)
(0.9424 0.402106 -1.45903e-21)
(0.951457 0.406898 0)
(0.961079 0.411046 0)
(0.971348 0.414613 0)
(0.982268 0.41752 -2.45542e-21)
(0.993594 0.419483 2.29153e-21)
(1.00528 0.4205 -3.27714e-22)
(1.01742 0.420624 -1.44532e-22)
(1.02971 0.41968 -7.00727e-23)
(1.04192 0.417611 -3.68328e-22)
(1.05406 0.414489 -5.37753e-21)
(1.06612 0.410338 0)
(1.07784 0.405162 0)
(1.08898 0.399032 0)
(1.09956 0.392037 2.18357e-20)
(1.10961 0.384231 -1.41239e-20)
(1.11905 0.375691 1.62312e-20)
(1.12767 0.366576 4.51066e-22)
(1.13542 0.357007 -8.73704e-21)
(1.14246 0.346994 8.82492e-21)
(1.14877 0.3366 -9.31889e-21)
(1.15435 0.325903 1.8583e-20)
(1.1591 0.315088 -6.03293e-22)
(1.16306 0.304229 -1.02326e-20)
(1.16635 0.293269 -6.05012e-22)
(1.16897 0.282253 -4.68032e-21)
(1.17096 0.271223 1.03812e-20)
(1.17231 0.260291 1.63972e-22)
(1.17307 0.249517 -5.29596e-21)
(1.17328 0.238853 5.318e-21)
(1.17297 0.228298 -1.61065e-20)
(1.17216 0.217892 3.89438e-21)
(1.17075 0.207675 1.34089e-21)
(0.899793 0.354808 -1.44512e-22)
(0.905198 0.360378 2.74911e-22)
(0.910796 0.365948 9.52721e-22)
(0.916674 0.371505 3.03844e-22)
(0.922936 0.376929 1.04461e-22)
(0.929696 0.382252 2.69598e-24)
(0.936965 0.387266 -2.65388e-23)
(0.944792 0.391999 -3.46092e-22)
(0.95324 0.396388 1.49512e-21)
(0.9622 0.400195 -2.33847e-21)
(0.971746 0.403479 1.54717e-21)
(0.981883 0.406169 2.46119e-22)
(0.992399 0.408011 -4.66896e-21)
(1.00326 0.409003 -5.55834e-21)
(1.01453 0.409191 3.3173e-21)
(1.02598 0.408411 7.29467e-21)
(1.03738 0.406606 4.27938e-21)
(1.04876 0.403836 -1.29811e-20)
(1.06008 0.400117 0)
(1.07113 0.395441 0)
(1.08168 0.389863 5.61283e-21)
(1.09175 0.383459 1.27028e-20)
(1.10135 0.376277 -1.31072e-20)
(1.11042 0.368382 -5.61579e-22)
(1.11874 0.359911 -5.00456e-22)
(1.12627 0.350973 -4.45709e-22)
(1.13314 0.341582 7.57673e-21)
(1.13933 0.331798 8.05637e-21)
(1.14483 0.321692 -1.70967e-20)
(1.14955 0.311435 8.01431e-21)
(1.15352 0.301099 8.82284e-21)
(1.15684 0.290638 -4.62988e-22)
(1.15952 0.280097 3.15367e-22)
(1.16159 0.269519 9.22402e-21)
(1.16303 0.259009 -4.65738e-21)
(1.16388 0.248627 -9.41279e-21)
(1.1642 0.238333 4.74918e-21)
(1.164 0.228128 4.91438e-21)
(1.16332 0.218053 -2.69865e-22)
(1.16203 0.208144 0)
(0.904505 0.348414 1.02096e-21)
(0.909632 0.353574 -1.77946e-22)
(0.914944 0.358721 -4.74116e-22)
(0.920516 0.363846 -2.67201e-22)
(0.926442 0.368841 -2.31649e-23)
(0.93282 0.373734 -1.1141e-22)
(0.939662 0.378338 -5.6405e-22)
(0.947008 0.38268 5.91252e-22)
(0.954916 0.386704 0)
(0.963289 0.390198 1.16336e-21)
(0.972193 0.393216 -1.46966e-21)
(0.981635 0.395696 3.70215e-21)
(0.991429 0.39741 -6.20135e-21)
(1.00154 0.398355 2.45395e-21)
(1.01205 0.398571 5.93682e-21)
(1.02273 0.397908 -9.36474e-21)
(1.03339 0.396308 0)
(1.04405 0.393821 4.11246e-21)
(1.05469 0.390458 0)
(1.0651 0.386205 4.57492e-21)
(1.07508 0.3811 -1.58047e-20)
(1.08465 0.375212 1.06125e-20)
(1.0938 0.36858 -1.16292e-20)
(1.10248 0.361261 0)
(1.11048 0.353371 -6.24708e-21)
(1.11776 0.345009 0)
(1.12443 0.336193 -1.41212e-20)
(1.13047 0.326977 1.42627e-20)
(1.13587 0.317428 0)
(1.14052 0.3077 -1.55875e-20)
(1.14446 0.297866 -9.10222e-23)
(1.14778 0.287887 7.69424e-21)
(1.15049 0.277809 -8.06484e-21)
(1.1526 0.267673 0)
(1.1541 0.25758 0)
(1.15503 0.247588 0)
(1.15544 0.237664 1.24567e-20)
(1.15533 0.227812 -4.26685e-21)
(1.15474 0.218071 -2.42665e-22)
(1.15357 0.208475 0)
(0.908823 0.342414 -2.29898e-22)
(0.913694 0.347206 -1.59585e-22)
(0.918742 0.351974 3.96632e-22)
(0.924035 0.356712 -2.41306e-22)
(0.929654 0.361323 2.72305e-24)
(0.935687 0.36583 -1.01704e-22)
(0.942143 0.370066 1.10792e-22)
(0.949057 0.374056 -4.18442e-22)
(0.956482 0.377749 1.3575e-21)
(0.96433 0.380957 9.66064e-22)
(0.97266 0.383728 0)
(0.981481 0.386008 1.67966e-21)
(0.990627 0.387592 2.08344e-22)
(1.00007 0.388475 -2.36066e-21)
(1.00988 0.388696 4.65338e-21)
(1.01987 0.388113 0)
(1.02985 0.386671 0)
(1.03985 0.384414 1.40371e-20)
(1.04984 0.381347 5.87654e-22)
(1.05965 0.377451 -4.30781e-21)
(1.0691 0.372755 8.73462e-21)
(1.07817 0.367317 -9.33901e-21)
(1.08688 0.361171 -4.62644e-21)
(1.09517 0.354365 -1.10477e-20)
(1.10284 0.347 1.71107e-20)
(1.10986 0.339164 1.2082e-20)
(1.11631 0.330877 -3.07468e-20)
(1.12217 0.322189 1.88891e-20)
(1.12743 0.313161 1.33244e-20)
(1.13199 0.303935 -6.87826e-21)
(1.13588 0.294579 0)
(1.13917 0.285064 6.89267e-21)
(1.14187 0.275433 0)
(1.14399 0.265729 0)
(1.14553 0.256045 7.42647e-21)
(1.14651 0.246438 -1.47961e-20)
(1.14698 0.236881 -1.51513e-20)
(1.14695 0.227381 -7.40867e-21)
(1.14645 0.217975 -6.70624e-21)
(1.14536 0.208695 -9.39832e-22)
(0.912791 0.336772 0)
(0.917425 0.341231 0)
(0.92223 0.345657 -7.367e-22)
(0.927265 0.350047 1.5235e-23)
(0.932601 0.354312 6.75074e-23)
(0.938319 0.358473 9.47796e-23)
(0.944424 0.362377 -2.65986e-22)
(0.950947 0.366049 0)
(0.957936 0.369443 -6.9136e-22)
(0.965311 0.372389 -2.65185e-21)
(0.973126 0.374932 2.17537e-21)
(0.981388 0.377023 2.66322e-21)
(0.989951 0.378478 0)
(0.998792 0.379292 -3.71013e-21)
(1.00797 0.379499 -8.91226e-21)
(1.01732 0.378971 9.58061e-21)
(1.02668 0.377652 4.37233e-22)
(1.03607 0.375582 -1.88015e-20)
(1.04546 0.372761 6.99842e-21)
(1.05471 0.36917 -2.24733e-20)
(1.06364 0.364826 -5.37407e-22)
(1.07224 0.359781 5.68263e-22)
(1.08052 0.354065 5.99046e-22)
(1.08842 0.347719 9.81793e-21)
(1.09575 0.340827 3.7759e-22)
(1.10249 0.333472 -9.93438e-21)
(1.10871 0.325672 -5.63169e-21)
(1.11438 0.317473 -6.1772e-21)
(1.11948 0.308933 1.16435e-20)
(1.12393 0.30018 -6.26436e-21)
(1.12773 0.291279 0)
(1.13097 0.282208 -1.71968e-22)
(1.13365 0.273009 -1.91739e-20)
(1.13577 0.263723 -3.05796e-23)
(1.13732 0.254437 6.6324e-21)
(1.13833 0.245208 6.92035e-21)
(1.13884 0.236015 6.97955e-21)
(1.13887 0.226863 7.02805e-21)
(1.13843 0.217791 1.01946e-20)
(1.13741 0.208828 0)
(0.916446 0.331455 3.43125e-23)
(0.920859 0.335613 -4.42563e-22)
(0.925438 0.33973 3.42267e-22)
(0.930234 0.343806 -2.1337e-22)
(0.93531 0.347758 -3.19802e-23)
(0.940738 0.351605 0)
(0.946521 0.355211 2.5495e-22)
(0.952689 0.358594 0)
(0.959281 0.361716 -1.16925e-21)
(0.966228 0.364422 1.65429e-21)
(0.973576 0.366755 -2.07947e-21)
(0.981332 0.368669 -2.54391e-21)
(0.989367 0.369999 -2.85337e-21)
(0.99766 0.37074 -1.06731e-22)
(1.00626 0.370923 7.74256e-21)
(1.01503 0.370429 7.52475e-23)
(1.02382 0.369207 4.13689e-22)
(1.03264 0.367289 0)
(1.04148 0.364676 1.25353e-20)
(1.0502 0.361344 -6.35834e-21)
(1.05863 0.357306 7.33249e-21)
(1.06678 0.352608 -7.34142e-21)
(1.07464 0.347273 2.41673e-20)
(1.08216 0.341338 0)
(1.08917 0.334875 0)
(1.09562 0.327959 5.93461e-22)
(1.10159 0.320606 -1.01638e-20)
(1.10706 0.312861 0)
(1.11199 0.304777 -4.03519e-22)
(1.1163 0.296469 1.07522e-20)
(1.12001 0.287999 -3.80144e-22)
(1.12318 0.279353 1.12768e-20)
(1.12581 0.270567 5.9615e-21)
(1.12791 0.261685 -1.15878e-20)
(1.12945 0.252787 -1.41468e-23)
(1.13048 0.243928 6.01882e-21)
(1.13102 0.235091 0)
(1.13108 0.226284 2.90085e-21)
(1.13069 0.217542 -3.25295e-21)
(1.12974 0.208894 -5.80388e-21)
(0.919821 0.326436 6.8608e-23)
(0.924029 0.33032 7.49249e-22)
(0.928396 0.334156 -8.87435e-23)
(0.932969 0.337947 3.44024e-22)
(0.937803 0.341616 8.81908e-23)
(0.942963 0.345179 -5.90243e-24)
(0.948451 0.348513 4.38189e-22)
(0.954292 0.351635 0)
(0.960522 0.354509 2.17781e-21)
(0.967078 0.356997 0)
(0.974001 0.359135 0)
(0.981297 0.360885 0)
(0.988851 0.362095 5.28975e-21)
(0.996644 0.362763 0)
(1.00472 0.362913 3.14785e-22)
(1.01296 0.362439 -1.18372e-20)
(1.02122 0.361292 8.56945e-21)
(1.02952 0.359501 4.77827e-21)
(1.03785 0.357063 0)
(1.04606 0.353955 -5.7096e-21)
(1.05403 0.350184 -6.54988e-21)
(1.06175 0.345791 9.81698e-24)
(1.06921 0.340796 -7.88215e-21)
(1.07635 0.33523 7.09444e-21)
(1.08303 0.329156 7.92765e-21)
(1.0892 0.32264 5.24877e-22)
(1.09492 0.3157 -8.55083e-21)
(1.10017 0.308376 -3.69371e-22)
(1.10492 0.300716 -4.12053e-22)