/*--------------------------------*- C++ -*----------------------------------*\
| =========                 |                                                 |
| \\      /  F ield         | OpenFOAM: The Open Source CFD Toolbox           |
|  \\    /   O peration     | Version:  3.0.1                                 |
|   \\  /    A nd           | Web:      www.OpenFOAM.org                      |
|    \\/     M anipulation  |                                                 |
\*---------------------------------------------------------------------------*/
FoamFile
{
    version     2.0;
    format      ascii;
    class       volScalarField;
    location    "500";
    object      nuTilda;
}
// * * * * * * * * * * * * * * * * * * * * * * * * * * * * * * * * * * * * * //

dimensions      [0 2 -1 0 0 0 0];

internalField   nonuniform List<scalar> 
58000
(
0.000800896
0.000724377
0.000652004
0.000594928
0.000553697
0.000514096
0.000485447
0.000464075
0.000446811
0.000435761
0.000429213
0.000424516
0.000421181
0.000420775
0.000420424
0.000420196
0.000420225
0.000421175
0.000422687
0.000424286
0.000426053
0.000427766
0.000429632
0.000431299
0.000432728
0.000433954
0.000434908
0.000435613
0.000436194
0.000436369
0.000436261
0.00043585
0.000434901
0.000433456
0.000431092
0.000427731
0.000423817
0.000419772
0.00041577
0.000413057
0.00303119
0.00272723
0.00240593
0.00209532
0.00183664
0.00161561
0.00144132
0.00130942
0.00120224
0.00112017
0.00105931
0.00101043
0.000969705
0.0009409
0.00091923
0.000901322
0.000886584
0.000876314
0.000868989
0.000862402
0.000856937
0.000849763
0.000843107
0.000836636
0.000829332
0.000821183
0.00081239
0.000803619
0.000795791
0.000787691
0.000779077
0.000769985
0.000760633
0.000751984
0.000742352
0.000731248
0.000719088
0.000706487
0.000693988
0.000682948
0.00529277
0.00494706
0.00454982
0.00411679
0.00372614
0.00337379
0.00307167
0.00282496
0.00261212
0.00244073
0.00230933
0.00220051
0.00210608
0.00203551
0.00198083
0.00193368
0.0018919
0.0018595
0.00183537
0.00181444
0.00179491
0.00177421
0.00175611
0.00173977
0.00172312
0.00170567
0.00168747
0.00166933
0.00165323
0.00163559
0.00161577
0.00159421
0.00157106
0.00154714
0.00152193
0.00149473
0.00146631
0.00143705
0.001408
0.00138181
0.00752389
0.00716183
0.00672732
0.00624558
0.00578243
0.00534018
0.00494817
0.00461203
0.00430846
0.00405264
0.00384844
0.00367437
0.00351966
0.00339916
0.00330331
0.00321917
0.00314327
0.0030811
0.00303228
0.00299015
0.00294905
0.002908
0.00287226
0.00284057
0.00280943
0.00277756
0.00274503
0.00271158
0.00267976
0.00264726
0.00261293
0.00257743
0.00253918
0.00249942
0.00245803
0.00241401
0.00236857
0.00232177
0.00227486
0.00223042
0.00972446
0.00936187
0.00891624
0.00841084
0.00791296
0.00742423
0.00696789
0.00656835
0.00619589
0.00586962
0.00559955
0.00536264
0.00514701
0.00497347
0.00483202
0.00470569
0.00459039
0.00449337
0.00441451
0.00434445
0.00427705
0.00421131
0.00415371
0.0041027
0.00405374
0.00400299
0.00395038
0.003898
0.00384873
0.00379965
0.00374771
0.00369292
0.00363557
0.00357741
0.00351729
0.00345372
0.00338732
0.00331999
0.00325233
0.00318672
0.0118949
0.0115375
0.0110926
0.0105796
0.0100668
0.00955029
0.0090604
0.00861656
0.00819413
0.00781511
0.0074911
0.00720004
0.00692943
0.00670517
0.00651832
0.00634894
0.00619259
0.00605823
0.00594694
0.00584525
0.00574786
0.00565391
0.00557104
0.00549751
0.0054251
0.0053518
0.0052775
0.00520458
0.00513508
0.00506532
0.00499363
0.00491828
0.00483952
0.00475998
0.00467843
0.00459297
0.00450396
0.00441362
0.00432261
0.00423326
0.0140399
0.0136906
0.0132524
0.0127416
0.0122253
0.0116976
0.0111877
0.0107177
0.0102603
0.00984027
0.00947525
0.00914116
0.00882458
0.00855418
0.00832466
0.0081139
0.00791806
0.00774562
0.00759868
0.00746423
0.00733561
0.00721184
0.00710189
0.00700193
0.00690441
0.0068066
0.00670854
0.00661135
0.00651976
0.00642765
0.00633238
0.00623452
0.00613262
0.00602882
0.00592437
0.00581559
0.00570259
0.00558757
0.00547136
0.00535633
0.0161637
0.0158237
0.0153949
0.014891
0.0143762
0.013848
0.0133296
0.0128456
0.0123659
0.011918
0.0115198
0.0111493
0.0107939
0.0104866
0.0102205
0.00997188
0.00973652
0.00952709
0.00934625
0.0091798
0.00901994
0.008866
0.00872611
0.00859886
0.00847576
0.00835173
0.00822687
0.00810435
0.00798718
0.00787063
0.00775152
0.00762846
0.00750217
0.00737355
0.00724436
0.0071106
0.00697266
0.00683107
0.00668785
0.00654548
0.0182699
0.0179398
0.0175219
0.0170283
0.01652
0.0159955
0.0154752
0.0149845
0.014492
0.0140247
0.0136043
0.0132072
0.0128197
0.0124793
0.0121805
0.0118983
0.0116284
0.0113851
0.0111721
0.0109754
0.0107845
0.0105987
0.0104288
0.0102742
0.0101228
0.00997126
0.00981975
0.00966983
0.00952715
0.00938517
0.00924039
0.0090912
0.00893849
0.0087835
0.00862816
0.00846805
0.00830319
0.00813411
0.00796295
0.00779217
0.0203615
0.0200415
0.0196352
0.0191533
0.0186541
0.0181365
0.0176183
0.0171244
0.016627
0.0161485
0.0157126
0.0152946
0.0148841
0.0145177
0.0141914
0.0138799
0.0135793
0.0133048
0.0130608
0.0128324
0.0126111
0.0123963
0.0121972
0.0120135
0.0118349
0.0116556
0.0114754
0.0112981
0.0111278
0.0109596
0.0107874
0.0106116
0.0104309
0.0102493
0.0100673
0.00988025
0.00968756
0.00949005
0.00929
0.00908987
0.022441
0.022131
0.0217363
0.021267
0.0207784
0.0202698
0.0197571
0.0192646
0.0187656
0.0182808
0.0178345
0.0174022
0.0169738
0.0165847
0.0162344
0.0158974
0.0155697
0.0152674
0.0149957
0.0147391
0.0144899
0.014245
0.0140172
0.0138062
0.0135991
0.0133926
0.0131845
0.0129793
0.0127812
0.0125858
0.0123864
0.0121832
0.0119743
0.011765
0.0115557
0.0113416
0.01112
0.0108931
0.0106634
0.0104332
0.0245103
0.02421
0.023827
0.0233704
0.0228933
0.0223947
0.0218896
0.0214012
0.0209035
0.0204157
0.0199614
0.0195204
0.0190793
0.0186739
0.0183048
0.0179464
0.017595
0.0172677
0.0169705
0.0166876
0.0164099
0.0161368
0.0158818
0.0156424
0.0154079
0.0151724
0.0149368
0.014703
0.0144766
0.0142537
0.0140284
0.0137984
0.0135615
0.0133242
0.0130867
0.0128444
0.0125939
0.0123376
0.012078
0.0118174
0.0265709
0.0262801
0.0259086
0.0254648
0.0249995
0.0245117
0.0240153
0.0235327
0.0230386
0.0225509
0.0220928
0.0216449
0.021193
0.0207759
0.0203919
0.0200155
0.0196426
0.0192928
0.0189727
0.018667
0.0183644
0.0180647
0.0177824
0.0175156
0.0172528
0.0169888
0.0167251
0.0164652
0.0162122
0.0159619
0.0157097
0.0154524
0.0151873
0.0149208
0.0146555
0.0143848
0.0141055
0.0138197
0.01353
0.0132387
0.0286241
0.0283424
0.0279821
0.027551
0.0270976
0.0266209
0.026134
0.0256583
0.0251694
0.024684
0.0242248
0.0237729
0.0233141
0.0228871
0.0224902
0.0220978
0.0217091
0.0213407
0.0209995
0.0206701
0.0203441
0.0200193
0.0197086
0.0194159
0.019129
0.0188392
0.0185483
0.0182609
0.017982
0.0177047
0.0174243
0.0171402
0.0168475
0.0165525
0.0162584
0.0159595
0.0156512
0.0153359
0.0150161
0.0146939
0.0306704
0.0303976
0.0300484
0.0296299
0.0291884
0.0287231
0.0282461
0.027778
0.0272953
0.0268136
0.026355
0.0259014
0.0254383
0.0250035
0.0245951
0.0241915
0.0237894
0.0234049
0.0230451
0.0226943
0.0223429
0.0219948
0.021661
0.0213435
0.0210311
0.0207174
0.020401
0.0200871
0.0197825
0.0194786
0.0191705
0.0188582
0.0185384
0.0182155
0.0178928
0.0175655
0.0172283
0.0168834
0.0165333
0.0161803
0.0327101
0.0324464
0.0321081
0.0317021
0.0312726
0.0308187
0.0303518
0.0298919
0.0294159
0.028939
0.0284823
0.0280285
0.0275631
0.0271231
0.0267066
0.0262931
0.0258792
0.0254807
0.0251046
0.024735
0.024362
0.0239906
0.0236349
0.0232941
0.0229574
0.0226201
0.0222788
0.0219393
0.0216093
0.0212794
0.0209443
0.0206051
0.0202577
0.0199067
0.0195557
0.0192
0.0188339
0.0184595
0.0180792
0.0176953
0.0347439
0.0344892
0.0341619
0.0337683
0.0333508
0.0329082
0.0324515
0.032
0.0315313
0.0310598
0.030606
0.0301531
0.0296869
0.0292433
0.0288206
0.028399
0.0279751
0.0275644
0.0271737
0.0267875
0.0263956
0.0260034
0.0256266
0.0252634
0.0249033
0.0245427
0.0241775
0.0238131
0.0234582
0.0231028
0.0227413
0.0223745
0.0220009
0.0216228
0.0212439
0.0208602
0.0204653
0.0200615
0.0196512
0.0192365
0.0367725
0.0365266
0.0362101
0.035829
0.0354236
0.034992
0.0345455
0.0341025
0.0336414
0.0331758
0.0327256
0.0322745
0.0318086
0.0313628
0.0309352
0.030507
0.0300746
0.0296532
0.0292495
0.0288483
0.0284393
0.0280283
0.0276314
0.0272471
0.0268647
0.0264804
0.0260931
0.0257049
0.0253246
0.0249454
0.0245589
0.024166
0.0237663
0.0233614
0.0229549
0.0225432
0.0221198
0.0216869
0.0212469
0.0208018
0.038796
0.0385587
0.0382529
0.0378842
0.0374919
0.0370705
0.036634
0.0361996
0.0357462
0.0352869
0.0348408
0.0343923
0.0339276
0.0334804
0.0330492
0.0326156
0.0321759
0.0317451
0.0313298
0.0309149
0.0304903
0.0300618
0.0296452
0.029242
0.028839
0.028433
0.028024
0.027613
0.0272088
0.0268058
0.0263947
0.0259764
0.0255512
0.0251198
0.0246861
0.0242467
0.0237952
0.0233337
0.0228643
0.0223891
0.0408145
0.0405856
0.0402901
0.0399333
0.0395525
0.0391424
0.0387165
0.0382912
0.0378457
0.037393
0.0369515
0.036506
0.0360433
0.0355957
0.0351617
0.0347236
0.0342777
0.0338385
0.0334126
0.0329853
0.0325465
0.0321021
0.031668
0.0312465
0.0308238
0.0303972
0.0299672
0.0295342
0.0291072
0.0286812
0.0282462
0.0278033
0.0273531
0.0268958
0.0264352
0.0259676
0.0254891
0.0249997
0.0245016
0.0239967
0.0428279
0.0426072
0.0423219
0.0419769
0.041607
0.041208
0.0407929
0.0403781
0.0399397
0.0394937
0.0390572
0.0386154
0.0381553
0.0377081
0.0372722
0.0368304
0.0363791
0.0359324
0.0354967
0.0350578
0.034606
0.034147
0.0336967
0.0332578
0.0328166
0.0323701
0.0319198
0.031466
0.0310171
0.0305686
0.0301108
0.0296442
0.0291697
0.0286872
0.0282006
0.0277062
0.0272007
0.0266838
0.0261572
0.0256231
0.0448358
0.0446232
0.0443481
0.0440157
0.0436556
0.0432671
0.0428623
0.0424567
0.0420269
0.0415883
0.0411578
0.0407203
0.0402636
0.0398172
0.0393804
0.0389354
0.0384793
0.0380256
0.0375807
0.037131
0.036667
0.0361945
0.035729
0.0352739
0.034815
0.0343497
0.0338788
0.0334058
0.0329361
0.0324653
0.0319864
0.0314971
0.0309991
0.0304921
0.0299803
0.02946
0.0289281
0.0283841
0.0278297
0.0272668
0.0468379
0.0466332
0.0463677
0.0460462
0.045697
0.0453195
0.0449252
0.0445283
0.044107
0.0436766
0.0432534
0.0428199
0.042368
0.0419224
0.0414861
0.0410382
0.0405778
0.0401173
0.0396634
0.0392031
0.0387277
0.0382427
0.0377631
0.0372926
0.0368173
0.0363344
0.035845
0.0353531
0.0348635
0.0343717
0.0338716
0.0333602
0.0328391
0.0323086
0.0317724
0.0312271
0.0306696
0.0300992
0.0295176
0.0289265
0.0488338
0.0486368
0.0483809
0.0480698
0.0477312
0.0473649
0.0469821
0.0465929
0.04618
0.0457572
0.0453404
0.0449118
0.0444642
0.0440207
0.0435849
0.0431372
0.0426739
0.0422066
0.0417439
0.0412722
0.0407867
0.04029
0.0397972
0.039312
0.0388216
0.0383225
0.0378158
0.037306
0.0367973
0.0362855
0.0357648
0.0352318
0.0346874
0.0341349
0.0335755
0.033006
0.0324237
0.0318276
0.0312194
0.0306009
0.0508227
0.0506337
0.0503882
0.0500863
0.049758
0.0494025
0.0490296
0.0486493
0.0482452
0.0478307
0.0474201
0.0469969
0.0465534
0.0461125
0.0456767
0.0452279
0.0447622
0.0442915
0.0438216
0.0433393
0.0428431
0.0423352
0.0418296
0.0413297
0.0408263
0.0403124
0.0397895
0.0392626
0.0387358
0.0382049
0.0376646
0.037111
0.0365451
0.0359707
0.0353886
0.0347957
0.0341892
0.0335681
0.0329341
0.0322888
0.052804
0.0526226
0.0523859
0.0520942
0.0517766
0.0514328
0.0510687
0.0506972
0.0503024
0.0498975
0.0494925
0.0490758
0.0486359
0.0481985
0.0477623
0.0473118
0.0468429
0.0463672
0.0458904
0.0454
0.0448947
0.0443767
0.0438595
0.0433464
0.0428294
0.0423016
0.0417639
0.0412212
0.0406773
0.0401283
0.0395692
0.038996
0.0384098
0.0378143
0.0372104
0.0365948
0.035965
0.0353197
0.0346605
0.0339891
0.0547768
0.0546039
0.0543747
0.054093
0.053786
0.0534524
0.0530982
0.0527359
0.0523505
0.0519538
0.0515556
0.0511443
0.0507092
0.0502749
0.0498408
0.0493894
0.0489164
0.0484353
0.0479502
0.0474532
0.0469401
0.0464131
0.0458853
0.0453601
0.0448291
0.0442891
0.0437379
0.0431805
0.0426205
0.0420543
0.0414771
0.0408854
0.04028
0.0396645
0.0390396
0.0384021
0.0377498
0.0370811
0.0363976
0.0357009
0.0567397
0.056574
0.0563535
0.0560823
0.0557868
0.0554623
0.0551178
0.0547652
0.0543902
0.0540009
0.0536103
0.0532036
0.0527743
0.0523418
0.0519082
0.0514558
0.0509815
0.0504957
0.0500031
0.0494989
0.0489784
0.0484432
0.047906
0.04737
0.0468271
0.0462749
0.0457108
0.0451396
0.0445644
0.0439817
0.0433862
0.0427778
0.0421544
0.04152
0.0408751
0.0402167
0.0395426
0.0388513
0.0381443
0.0374231
0.0586924
0.0585335
0.0583219
0.0580611
0.0577756
0.0574613
0.057127
0.0567839
0.056418
0.0560369
0.0556528
0.0552517
0.0548273
0.0543989
0.0539659
0.0535112
0.0530338
0.0525423
0.0520452
0.0515352
0.0510082
0.0504659
0.0499203
0.0493746
0.0488211
0.0482577
0.0476815
0.0470973
0.046508
0.04591
0.0452983
0.0446732
0.0440326
0.0433799
0.0427159
0.0420374
0.0413424
0.0406294
0.0398998
0.0391549
0.0606341
0.0604821
0.0602796
0.0600299
0.0597533
0.0594491
0.0591256
0.058793
0.058435
0.0580628
0.0576843
0.0572897
0.0568688
0.0564425
0.0560097
0.0555552
0.0550749
0.0545783
0.0540763
0.0535611
0.0530286
0.05248
0.051927
0.0513727
0.0508098
0.0502361
0.0496489
0.0490527
0.0484503
0.047838
0.0472112
0.0465705
0.0459133
0.0452433
0.044561
0.0438633
0.0431483
0.0424145
0.0416631
0.0408954
0.062564
0.0624186
0.062226
0.0619849
0.0617182
0.0614251
0.061113
0.0607886
0.0604393
0.0600749
0.059703
0.0593143
0.0588989
0.0584742
0.0580397
0.0575839
0.0570991
0.0566003
0.0560948
0.0555756
0.0550384
0.0544845
0.0539252
0.0533633
0.0527919
0.052209
0.0516117
0.0510046
0.05039
0.0497646
0.0491238
0.0484683
0.0477956
0.0471092
0.0464094
0.0456935
0.0449594
0.0442057
0.0434334
0.0426439
0.0644809
0.0643416
0.0641571
0.0639258
0.0636696
0.0633885
0.0630858
0.0627709
0.0624315
0.0620742
0.0617096
0.0613263
0.0609142
0.0604896
0.0600546
0.0595947
0.0591087
0.0586081
0.0581001
0.0575777
0.0570368
0.0564786
0.0559139
0.0553455
0.0547666
0.0541755
0.0535692
0.0529521
0.0523263
0.0516887
0.0510349
0.0503656
0.0496782
0.0489764
0.0482602
0.047527
0.0467749
0.0460021
0.0452099
0.0443995
0.0663842
0.0662506
0.0660739
0.0658524
0.0656067
0.0653361
0.065044
0.0647396
0.0644083
0.0640593
0.0636996
0.0633212
0.0629112
0.0624882
0.0620515
0.06159
0.061103
0.0606014
0.0600916
0.0595668
0.059023
0.0584615
0.0578923
0.0573183
0.0567329
0.0561346
0.0555203
0.0548941
0.0542582
0.0536094
0.0529435
0.0522614
0.0515603
0.050844
0.0501125
0.049363
0.0485938
0.0478029
0.0469918
0.0461616
0.0682729
0.0681449
0.0679759
0.0677645
0.0675301
0.0672688
0.0669874
0.0666914
0.0663697
0.0660274
0.0656735
0.0652972
0.06489
0.0644668
0.0640297
0.063568
0.0630811
0.0625792
0.0620684
0.0615421
0.0609964
0.0604324
0.0598598
0.0592811
0.0586903
0.0580857
0.0574642
0.05683
0.0561849
0.0555258
0.0548489
0.0541549
0.0534409
0.0527112
0.0519654
0.051201
0.0504154
0.0496074
0.0487783
0.0479292
0.0701462
0.0700235
0.069862
0.0696612
0.0694358
0.0691851
0.0689126
0.0686262
0.0683124
0.0679789
0.0676287
0.0672543
0.0668476
0.0664252
0.0659888
0.065528
0.0650422
0.064541
0.06403
0.063503
0.0629563
0.0623906
0.0618154
0.0612332
0.060638
0.060028
0.0594003
0.0587589
0.0581054
0.0574371
0.05675
0.056045
0.0553193
0.0545771
0.0538182
0.0530407
0.0522391
0.0514146
0.0505684
0.0497017
0.0720034
0.0718854
0.0717304
0.0715383
0.0713233
0.0710814
0.070819
0.0705408
0.0702364
0.069907
0.0695611
0.0691881
0.0687835
0.0683632
0.0679285
0.0674697
0.0669859
0.0664861
0.0659759
0.065449
0.0649019
0.0643355
0.0637587
0.063174
0.0625755
0.0619609
0.0613277
0.0606799
0.060019
0.0593423
0.0586461
0.0579311
0.0571944
0.0564406
0.0556693
0.0548786
0.0540628
0.0532232
0.0523612
0.0514783
0.0738437
0.0737301
0.0735809
0.0733961
0.0731895
0.0729577
0.0727035
0.0724352
0.0721361
0.071813
0.0714694
0.0710992
0.070698
0.0702808
0.0698489
0.0693929
0.0689118
0.0684143
0.0679054
0.0673795
0.0668329
0.0662664
0.0656888
0.0651025
0.0645028
0.0638836
0.0632455
0.0625921
0.0619247
0.0612406
0.0605362
0.0598121
0.0590655
0.0583009
0.0575178
0.0567147
0.0558857
0.0550322
0.0541558
0.053258
0.0756667
0.0755572
0.0754131
0.0752347
0.0750351
0.0748112
0.074566
0.0743039
0.0740126
0.0736954
0.0733548
0.0729883
0.0725913
0.0721782
0.0717498
0.0712973
0.0708196
0.070325
0.0698183
0.0692939
0.0687484
0.0681826
0.0676048
0.0670175
0.0664161
0.0657942
0.0651524
0.0644945
0.0638216
0.0631312
0.0624198
0.0616874
0.0609315
0.0601569
0.0593631
0.0585483
0.0577072
0.056841
0.0559514
0.0550403
0.0774717
0.077366
0.0772268
0.0770541
0.0768606
0.0766432
0.0764048
0.0761489
0.075864
0.0755527
0.0752172
0.0748556
0.0744638
0.0740554
0.0736312
0.0731827
0.0727091
0.072218
0.0717139
0.0711916
0.0706479
0.0700835
0.0695061
0.0689184
0.0683159
0.0676922
0.0670479
0.0663865
0.0657089
0.0650131
0.0642966
0.0635559
0.0627914
0.0620077
0.0612039
0.0603786
0.0595264
0.0586487
0.0577473
0.0568245
0.0792582
0.0791561
0.0790214
0.0788541
0.0786662
0.0784547
0.0782222
0.0779721
0.0776932
0.0773878
0.0770579
0.0767018
0.0763157
0.0759124
0.0754929
0.075049
0.0745798
0.0740926
0.0735918
0.0730722
0.0725309
0.0719683
0.0713922
0.0708046
0.0702018
0.0695773
0.0689316
0.0682672
0.0675856
0.0668848
0.0661624
0.0654153
0.0646436
0.063852
0.0630394
0.0622047
0.0613425
0.0604544
0.0595426
0.05861
0.0810255
0.0809269
0.0807965
0.0806343
0.0804517
0.0802458
0.0800189
0.0797742
0.079501
0.0792015
0.0788773
0.078527
0.0781468
0.0777491
0.0773346
0.0768956
0.0764312
0.0759484
0.0754513
0.0749349
0.0743965
0.0738365
0.0732622
0.0726756
0.0720731
0.0714487
0.0708036
0.0701362
0.0694509
0.0687454
0.0680166
0.0672647
0.0664874
0.065689
0.0648685
0.0640255
0.0631547
0.0622575
0.0613367
0.0603961
0.0827727
0.0826775
0.0825513
0.0823941
0.0822166
0.082016
0.0817946
0.0815552
0.0812877
0.080994
0.0806756
0.0803311
0.0799571
0.079565
0.0791558
0.078722
0.0782628
0.0777848
0.0772917
0.0767791
0.0762441
0.0756873
0.0751155
0.0745307
0.0739292
0.0733052
0.07266
0.0719913
0.0713036
0.0705947
0.0698615
0.0691041
0.0683224
0.0675185
0.0666911
0.0658408
0.0649622
0.0640571
0.0631288
0.0621822
0.0844992
0.0844073
0.0842852
0.0841328
0.0839602
0.0837649
0.0835488
0.0833146
0.0830527
0.0827648
0.0824523
0.0821137
0.0817459
0.0813598
0.080956
0.0805277
0.080074
0.079601
0.0791124
0.078604
0.0780729
0.0775198
0.0769514
0.0763694
0.0757694
0.0751463
0.0745013
0.0738321
0.0731429
0.0724318
0.0716957
0.0709346
0.0701489
0.0693398
0.0685065
0.0676496
0.0667641
0.0658523
0.064918
0.0639675
0.0862042
0.0861155
0.0859973
0.0858496
0.0856819
0.0854917
0.0852808
0.0850518
0.0847955
0.0845135
0.0842068
0.0838742
0.0835127
0.0831326
0.0827346
0.0823119
0.0818639
0.0813963
0.0809126
0.0804087
0.0798821
0.0793333
0.078769
0.0781916
0.077593
0.0769715
0.0763271
0.0756579
0.0749681
0.0742557
0.073518
0.0727545
0.0719665
0.0711521
0.0703133
0.0694506
0.0685594
0.067642
0.0667033
0.0657511
0.0878868
0.0878012
0.0876869
0.0875438
0.0873808
0.0871956
0.08699
0.0867661
0.0865154
0.0862392
0.0859384
0.0856119
0.0852569
0.084883
0.0844907
0.0840739
0.0836318
0.0831699
0.0826915
0.0821925
0.0816708
0.0811268
0.0805668
0.0799933
0.0793979
0.0787803
0.0781363
0.0774676
0.0767779
0.0760655
0.0753281
0.0745621
0.0737712
0.0729531
0.0721101
0.0712428
0.0703468
0.0694251
0.0684836
0.067532
0.0895463
0.0894637
0.0893531
0.0892145
0.0890563
0.088876
0.0886755
0.0884568
0.0882117
0.0879414
0.0876465
0.0873262
0.0869776
0.08661
0.0862237
0.085813
0.085377
0.0849211
0.0844482
0.0839546
0.0834382
0.0828996
0.0823444
0.081775
0.0811832
0.0805686
0.0799269
0.0792598
0.0785712
0.0778597
0.0771223
0.0763553
0.0755624
0.0747416
0.0738955
0.0730247
0.0721251
0.0712005
0.0702577
0.0693092
0.0911818
0.0911022
0.0909953
0.0908611
0.0907074
0.0905321
0.0903367
0.0901231
0.0898836
0.0896192
0.0893304
0.0890163
0.0886743
0.088313
0.0879328
0.0875283
0.0870987
0.086649
0.086182
0.0856942
0.0851837
0.0846509
0.0841015
0.0835364
0.0829485
0.0823372
0.0816983
0.0810335
0.080347
0.0796383
0.0789006
0.0781337
0.0773389
0.076516
0.0756685
0.0747952
0.0738932
0.0729668
0.0720245
0.0710815
0.0927927
0.0927159
0.0926126
0.0924827
0.0923335
0.092163
0.0919727
0.0917643
0.0915304
0.091272
0.0909894
0.0906815
0.0903461
0.0899911
0.0896172
0.0892191
0.0887961
0.0883528
0.087892
0.0874105
0.0869063
0.0863802
0.0858382
0.0852771
0.0846935
0.0840857
0.0834498
0.0827879
0.0821038
0.081397
0.0806605
0.0798942
0.0790987
0.0782758
0.077429
0.0765536
0.0756498
0.0747228
0.0737825
0.0728475
0.0943783
0.0943043
0.0942044
0.0940787
0.093934
0.0937682
0.0935829
0.0933796
0.0931514
0.0928991
0.0926228
0.0923212
0.0919923
0.0916438
0.0912762
0.0908845
0.0904683
0.0900318
0.0895776
0.0891026
0.0886052
0.088086
0.0875505
0.0869952
0.0864179
0.0858132
0.0851807
0.084522
0.0838407
0.0831363
0.0824017
0.0816368
0.080842
0.0800197
0.0791731
0.0782973
0.0773932
0.076467
0.0755303
0.0746059
0.0959379
0.0958666
0.0957701
0.0956485
0.0955081
0.095347
0.0951666
0.0949685
0.0947459
0.0945
0.0942304
0.0939348
0.0936122
0.0932701
0.0929089
0.092524
0.0921147
0.0916852
0.0912379
0.09077
0.0902799
0.0897682
0.0892391
0.0886896
0.0881177
0.0875177
0.0868894
0.0862348
0.0855571
0.0848556
0.0841235
0.0833607
0.0825676
0.0817465
0.0809007
0.0800255
0.0791223
0.0781981
0.0772667
0.076355
0.0974709
0.0974022
0.0973091
0.0971914
0.0970552
0.0968987
0.0967232
0.0965301
0.0963133
0.0960737
0.0958119
0.0955215
0.095205
0.0948693
0.0945147
0.0941367
0.0937346
0.0933124
0.0928723
0.0924119
0.0919298
0.0914272
0.0909039
0.0903604
0.0897937
0.0891986
0.0885753
0.0879255
0.0872523
0.0865543
0.0858252
0.0850651
0.0842744
0.0834553
0.082611
0.0817373
0.0808359
0.0799149
0.0789901
0.0780936
0.0989768
0.0989106
0.0988207
0.0987069
0.0985749
0.0984229
0.0982522
0.098064
0.0978526
0.097619
0.0973636
0.0970795
0.0967697
0.0964408
0.0960929
0.095722
0.0953273
0.0949126
0.0944802
0.0940276
0.0935539
0.0930591
0.0925431
0.0920074
0.0914454
0.0908554
0.0902375
0.0895932
0.0889264
0.0882314
0.0875056
0.0867488
0.0859612
0.0851448
0.084303
0.0834316
0.0825331
0.0816162
0.0806995
0.0798199
0.100455
0.100391
0.100304
0.100194
0.100067
0.0999189
0.0997529
0.0995696
0.0993636
0.0991358
0.0988864
0.0986088
0.0983059
0.097984
0.0976431
0.0972794
0.0968923
0.0964854
0.0960608
0.0956166
0.0951527
0.0946647
0.094156
0.0936268
0.0930706
0.0924866
0.091875
0.0912364
0.0905749
0.0898846
0.0891632
0.0884105
0.0876268
0.0868141
0.0859755
0.0851075
0.0842126
0.083301
0.0823933
0.0815326
0.101905
0.101844
0.10176
0.101654
0.10153
0.101386
0.101225
0.101047
0.100846
0.100624
0.10038
0.100109
0.0998134
0.0994985
0.0991647
0.0988084
0.0984291
0.0980302
0.0976137
0.0971778
0.0967223
0.0962427
0.0957428
0.0952191
0.0946688
0.0940913
0.0934878
0.0928545
0.0921982
0.0915131
0.0907968
0.0900491
0.0892702
0.0884618
0.0876275
0.0867638
0.0858736
0.0849681
0.0840705
0.08323
0.103327
0.103268
0.103187
0.103084
0.102964
0.102825
0.102668
0.102494
0.102299
0.102083
0.101845
0.101581
0.101292
0.100984
0.100657
0.100309
0.0999374
0.0995466
0.0991386
0.0987115
0.0982641
0.0977926
0.0973
0.0967828
0.0962389
0.0956682
0.0950718
0.0944455
0.0937953
0.0931161
0.0924057
0.0916638
0.0908905
0.0900875
0.0892584
0.0883997
0.0875151
0.0866164
0.0857298
0.0849107
0.104719
0.104663
0.104585
0.104486
0.104369
0.104234
0.104082
0.103913
0.103723
0.103512
0.103281
0.103023
0.102741
0.10244
0.102121
0.10178
0.101417
0.101034
0.100635
0.100218
0.0997778
0.0993152
0.0988284
0.0983175
0.0977803
0.0972165
0.0966274
0.0960097
0.0953656
0.0946928
0.0939889
0.0932536
0.0924868
0.0916903
0.0908673
0.0900146
0.0891362
0.0882451
0.0873702
0.0865734
0.106083
0.106029
0.105953
0.105858
0.105745
0.105614
0.105466
0.105302
0.105117
0.104912
0.104686
0.104435
0.10416
0.103867
0.103555
0.103221
0.102866
0.102493
0.102102
0.101694
0.101261
0.100806
0.100326
0.0998225
0.0992924
0.0987357
0.0981537
0.0975439
0.0969074
0.096242
0.0955456
0.0948178
0.0940582
0.0932696
0.0924537
0.0916076
0.0907362
0.0898533
0.0889905
0.0882167
0.107417
0.107365
0.107293
0.1072
0.107091
0.106964
0.106821
0.106661
0.106481
0.106282
0.106062
0.105818
0.10555
0.105264
0.104959
0.104633
0.104286
0.103922
0.103541
0.103139
0.102716
0.102267
0.101794
0.101297
0.100775
0.100226
0.0996499
0.0990489
0.0984206
0.0977636
0.0970755
0.096356
0.095605
0.0948263
0.0940172
0.0931782
0.0923142
0.0914401
0.0905898
0.0898392
0.108722
0.108672
0.108602
0.108513
0.108407
0.108284
0.108145
0.10799
0.107815
0.107621
0.107408
0.107171
0.10691
0.10663
0.106332
0.106014
0.105676
0.105322
0.104948
0.104553
0.104137
0.103695
0.10323
0.102742
0.102228
0.101687
0.101119
0.100526
0.0999059
0.0992574
0.0985782
0.0978677
0.0971259
0.0963564
0.0955559
0.0947251
0.0938694
0.0930046
0.0921671
0.09144
0.109997
0.109949
0.109882
0.109795
0.109693
0.109575
0.109439
0.109289
0.109119
0.108931
0.108724
0.108495
0.108239
0.107966
0.107675
0.107365
0.107036
0.106689
0.106322
0.105934
0.105525
0.105092
0.104636
0.104156
0.10365
0.103118
0.102559
0.101974
0.101363
0.100724
0.100054
0.0993529
0.0986209
0.097861
0.0970698
0.096248
0.0954014
0.0945463
0.0937218
0.0930179
0.111243
0.111196
0.111131
0.111048
0.11095
0.110835
0.110703
0.110557
0.110392
0.110209
0.110009
0.109786
0.109538
0.109271
0.108988
0.108685
0.108365
0.108025
0.107665
0.107284
0.106882
0.106458
0.106011
0.10554
0.105044
0.104521
0.103971
0.103394
0.102792
0.102162
0.101502
0.100811
0.10009
0.0993402
0.0985589
0.0977467
0.0969096
0.0960647
0.0952532
0.094572
0.112458
0.112414
0.112351
0.112271
0.112176
0.112064
0.111937
0.111795
0.111635
0.111458
0.111263
0.111046
0.110805
0.110545
0.110269
0.109974
0.109661
0.109329
0.108977
0.108604
0.108209
0.107794
0.107356
0.106894
0.106407
0.105894
0.105354
0.104787
0.104194
0.103573
0.102923
0.102243
0.101533
0.100794
0.100023
0.099221
0.0983937
0.0975592
0.0967606
0.0961017
0.113644
0.113601
0.113541
0.113464
0.113372
0.113264
0.113141
0.113003
0.112848
0.112675
0.112486
0.112276
0.112041
0.111789
0.11152
0.111232
0.110926
0.110601
0.110258
0.109893
0.109506
0.1091
0.10867
0.108218
0.107741
0.107237
0.106707
0.106151
0.105568
0.104958
0.104318
0.10365
0.102953
0.102224
0.101462
0.10067
0.0998534
0.0990294
0.0982436
0.0976063
0.114801
0.114759
0.114702
0.114627
0.114538
0.114434
0.114315
0.114181
0.11403
0.113863
0.113679
0.113476
0.113248
0.113003
0.11274
0.112459
0.112159
0.111843
0.111508
0.111151
0.110773
0.110375
0.109955
0.109512
0.109045
0.108551
0.108032
0.107486
0.106914
0.106315
0.105686
0.105029
0.104343
0.103626
0.102876
0.102094
0.101288
0.100475
0.0997016
0.099085
0.115928
0.115888
0.115832
0.115761
0.115675
0.115574
0.115458
0.115329
0.115183
0.11502
0.114842
0.114645
0.114425
0.114187
0.113931
0.113656
0.113363
0.113055
0.112728
0.112379
0.11201
0.111619
0.111209
0.110776
0.110319
0.109836
0.109327
0.108792
0.108231
0.107643
0.107026
0.106381
0.105707
0.105001
0.104262
0.103492
0.102697
0.101895
0.101134
0.100537
0.117025
0.116987
0.116934
0.116865
0.116782
0.116684
0.116572
0.116447
0.116305
0.116148
0.115975
0.115784
0.115573
0.11534
0.115091
0.114823
0.114538
0.114237
0.113918
0.113578
0.113217
0.112835
0.112434
0.112011
0.111563
0.111091
0.110593
0.110069
0.10952
0.108943
0.108338
0.107705
0.107043
0.106349
0.105622
0.104864
0.10408
0.103289
0.102541
0.101963
0.118094
0.118057
0.118006
0.117939
0.117859
0.117765
0.117657
0.117535
0.117398
0.117245
0.117078
0.116893
0.116689
0.116463
0.116221
0.115961
0.115682
0.115389
0.115077
0.114746
0.114394
0.114021
0.113629
0.113215
0.112778
0.112317
0.11183
0.111317
0.110779
0.110214
0.109622
0.109003
0.108352
0.10767
0.106955
0.106209
0.105437
0.104658
0.103921
0.103361
0.119133
0.119098
0.119049
0.118985
0.118908
0.118817
0.118712
0.118594
0.118461
0.118314
0.118151
0.117973
0.117775
0.117556
0.117321
0.117068
0.116797
0.11651
0.116207
0.115885
0.115542
0.115178
0.114794
0.11439
0.113964
0.113513
0.113037
0.112536
0.112009
0.111456
0.110876
0.11027
0.109632
0.108963
0.108261
0.107527
0.106767
0.106
0.105275
0.104731
0.120144
0.120111
0.120063
0.120002
0.119927
0.119839
0.119738
0.119624
0.119496
0.119353
0.119195
0.119022
0.118831
0.11862
0.118392
0.118146
0.117883
0.117603
0.117308
0.116994
0.11666
0.116305
0.11593
0.115536
0.11512
0.11468
0.114215
0.113725
0.113211
0.11267
0.112102
0.111508
0.110884
0.110227
0.109538
0.108818
0.108071
0.107315
0.106601
0.106074
0.121127
0.121095
0.121049
0.12099
0.120918
0.120834
0.120736
0.120626
0.120501
0.120363
0.120211
0.120043
0.119858
0.119656
0.119434
0.119195
0.118939
0.118667
0.118379
0.118074
0.117749
0.117403
0.117038
0.116653
0.116247
0.115818
0.115364
0.114886
0.114383
0.113854
0.113299
0.112718
0.112107
0.111464
0.110788
0.110081
0.109347
0.108603
0.107901
0.107388
0.122082
0.122051
0.122007
0.12195
0.121881
0.1218
0.121705
0.121599
0.121478
0.121344
0.121197
0.121035
0.120857
0.120662
0.120447
0.120215
0.119967
0.119702
0.119421
0.119125
0.118809
0.118473
0.118117
0.117742
0.117345
0.116926
0.116484
0.116018
0.115527
0.11501
0.114468
0.113901
0.113303
0.112673
0.11201
0.111317
0.110595
0.109864
0.109173
0.108673
0.123009
0.12298
0.122938
0.122883
0.122817
0.122738
0.122647
0.122544
0.122428
0.122298
0.122156
0.121999
0.121826
0.121638
0.121431
0.121206
0.120966
0.120709
0.120436
0.120148
0.119841
0.119514
0.119168
0.118802
0.118415
0.118007
0.117576
0.117121
0.116642
0.116138
0.115611
0.115056
0.11447
0.113854
0.113205
0.112525
0.111817
0.111097
0.110417
0.10993
0.12391
0.123882
0.123841
0.123789
0.123725
0.123649
0.123561
0.123462
0.123349
0.123224
0.123086
0.122935
0.122768
0.122587
0.122387
0.12217
0.121937
0.121688
0.121423
0.121143
0.120844
0.120527
0.12019
0.119835
0.119458
0.11906
0.118639
0.118196
0.117729
0.117238
0.116724
0.116182
0.11561
0.115006
0.114371
0.113704
0.11301
0.112303
0.111633
0.111157
0.124784
0.124757
0.124718
0.124668
0.124606
0.124533
0.124448
0.124352
0.124244
0.124123
0.12399
0.123843
0.123683
0.123508
0.123317
0.123107
0.122881
0.122639
0.122382
0.122109
0.121819
0.121511
0.121185
0.120839
0.120473
0.120085
0.119676
0.119244
0.118789
0.118311
0.11781
0.11728
0.116721
0.116131
0.115509
0.114856
0.114174
0.113479
0.11282
0.112354
0.125631
0.125605
0.125568
0.12552
0.125461
0.125391
0.125309
0.125217
0.125112
0.124995
0.124867
0.124725
0.12457
0.124401
0.124218
0.124016
0.123797
0.123563
0.123314
0.123049
0.122768