/*--------------------------------*- C++ -*----------------------------------*\
| =========                 |                                                 |
| \\      /  F ield         | OpenFOAM: The Open Source CFD Toolbox           |
|  \\    /   O peration     | Version:  3.0.1                                 |
|   \\  /    A nd           | Web:      www.OpenFOAM.org                      |
|    \\/     M anipulation  |                                                 |
\*---------------------------------------------------------------------------*/
FoamFile
{
    version     2.0;
    format      ascii;
    class       volScalarField;
    location    "500";
    object      p;
}
// * * * * * * * * * * * * * * * * * * * * * * * * * * * * * * * * * * * * * //

dimensions      [0 2 -2 0 0 0 0];

internalField   nonuniform List<scalar> 
58000
(
0.0752864
-0.182847
-0.372219
-0.490835
-0.56143
-0.607102
-0.639239
-0.657213
-0.667331
-0.671096
-0.668147
-0.660948
-0.651386
-0.63952
-0.62617
-0.612725
-0.599809
-0.587409
-0.57542
-0.564065
-0.553316
-0.543035
-0.533109
-0.523488
-0.5143
-0.505491
-0.496865
-0.488394
-0.480057
-0.471891
-0.463908
-0.45587
-0.447746
-0.439779
-0.432334
-0.423957
-0.415192
-0.407208
-0.401092
-0.396042
0.313573
0.208697
0.101769
-0.0154931
-0.12164
-0.215225
-0.292442
-0.357859
-0.415096
-0.459654
-0.493133
-0.518753
-0.536749
-0.546712
-0.551935
-0.552976
-0.550497
-0.545485
-0.539222
-0.532193
-0.524455
-0.516305
-0.508049
-0.500047
-0.492085
-0.484073
-0.476064
-0.468152
-0.46052
-0.45321
-0.446006
-0.438999
-0.43219
-0.425488
-0.418729
-0.411342
-0.403546
-0.39617
-0.389934
-0.385189
0.218623
0.141296
0.0667858
-0.00941208
-0.0853975
-0.154652
-0.220491
-0.27698
-0.327512
-0.371813
-0.40698
-0.435177
-0.458235
-0.474824
-0.48545
-0.492308
-0.496101
-0.496995
-0.495629
-0.492763
-0.488795
-0.483979
-0.478576
-0.472884
-0.466908
-0.46069
-0.454298
-0.447834
-0.441457
-0.435145
-0.428762
-0.422347
-0.415898
-0.409445
-0.403078
-0.396667
-0.390177
-0.383861
-0.377966
-0.3725
0.216522
0.170228
0.121507
0.0667989
0.00836191
-0.0501867
-0.108466
-0.162337
-0.213613
-0.260567
-0.300538
-0.33524
-0.365778
-0.390146
-0.40844
-0.422858
-0.433845
-0.441205
-0.445353
-0.447284
-0.447573
-0.446453
-0.444141
-0.440968
-0.437172
-0.432877
-0.428162
-0.423137
-0.417981
-0.412742
-0.407359
-0.401868
-0.396286
-0.39067
-0.385117
-0.379565
-0.373927
-0.368297
-0.3628
-0.357477
0.181885
0.14794
0.113854
0.0760615
0.0336894
-0.0100339
-0.056649
-0.101593
-0.146004
-0.189047
-0.227427
-0.262034
-0.293921
-0.32112
-0.342751
-0.36101
-0.376229
-0.387948
-0.39619
-0.401941
-0.405853
-0.4081
-0.408785
-0.408176
-0.406662
-0.404438
-0.401588
-0.398221
-0.394498
-0.390493
-0.386226
-0.381738
-0.377051
-0.372237
-0.367397
-0.362521
-0.357553
-0.352532
-0.347512
-0.342511
0.162037
0.136185
0.110543
0.0822877
0.0502487
0.0167918
-0.0201458
-0.0570318
-0.09458
-0.132411
-0.167544
-0.2004
-0.231739
-0.259756
-0.2831
-0.303736
-0.321807
-0.336689
-0.348127
-0.357024
-0.364029
-0.369237
-0.372648
-0.37445
-0.37513
-0.374924
-0.373914
-0.372198
-0.369915
-0.36718
-0.364078
-0.360656
-0.356945
-0.353016
-0.348971
-0.344832
-0.340558
-0.336167
-0.331686
-0.327136
0.142612
0.121843
0.101686
0.079817
0.0548966
0.0289437
-0.000375521
-0.030254
-0.0612348
-0.0934448
-0.124296
-0.153923
-0.182961
-0.209977
-0.23326
-0.254544
-0.273844
-0.290478
-0.303953
-0.315034
-0.324332
-0.331858
-0.337524
-0.341408
-0.344043
-0.345684
-0.346397
-0.346262
-0.34539
-0.343914
-0.341974
-0.339623
-0.336893
-0.333857
-0.330608
-0.327193
-0.323592
-0.319815
-0.315882
-0.311815
0.126824
0.10958
0.0930708
0.0754038
0.0553263
0.0345748
0.0108839
-0.0135292
-0.039101
-0.0662683
-0.0929019
-0.119
-0.145099
-0.170168
-0.192366
-0.213193
-0.232581
-0.24987
-0.264416
-0.276827
-0.287656
-0.296836
-0.304217
-0.309768
-0.314028
-0.317246
-0.319467
-0.320749
-0.321171
-0.320873
-0.320038
-0.318713
-0.316935
-0.314772
-0.31231
-0.309613
-0.30668
-0.303518
-0.300145
-0.296587
0.113214
0.0985409
0.0846377
0.0699339
0.0532951
0.0362559
0.0167221
-0.00350135
-0.0247753
-0.0477016
-0.0705539
-0.0932763
-0.116336
-0.139059
-0.159611
-0.179294
-0.198
-0.215138
-0.229987
-0.243007
-0.254684
-0.264895
-0.27346
-0.280243
-0.285758
-0.290239
-0.293705
-0.296193
-0.297749
-0.298505
-0.29867
-0.29829
-0.297397
-0.296055
-0.29434
-0.292329
-0.290036
-0.287467
-0.284642
-0.281587
0.101558
0.0888386
0.0768673
0.0643277
0.0502109
0.0358821
0.0194513
0.00242237
-0.0155031
-0.0349873
-0.0546309
-0.0743607
-0.0945905
-0.114925
-0.13363
-0.151838
-0.169423
-0.18589
-0.200496
-0.21358
-0.225566
-0.236294
-0.245571
-0.25318
-0.259593
-0.265019
-0.269456
-0.272916
-0.275417
-0.277074
-0.27811
-0.278565
-0.278467
-0.277872
-0.276846
-0.275473
-0.273782
-0.271775
-0.269473
-0.266903
0.0914685
0.080283
0.0698
0.0589029
0.0466988
0.0344077
0.0203404
0.00577387
-0.00953889
-0.0262593
-0.0432415
-0.0604145
-0.0781442
-0.0962353
-0.113102
-0.12973
-0.145994
-0.161492
-0.175506
-0.188281
-0.200184
-0.211032
-0.220637
-0.228724
-0.235716
-0.241796
-0.24694
-0.251142
-0.254394
-0.256788
-0.258554
-0.259721
-0.260313
-0.260378
-0.259969
-0.259175
-0.258033
-0.256544
-0.254731
-0.252617
0.0826823
0.0727336
0.0634308
0.0538188
0.0431074
0.0323896
0.0201616
0.00752386
-0.00572972
-0.0202292
-0.0350245
-0.0500506
-0.0656293
-0.0817036
-0.0968516
-0.111932
-0.12683
-0.141225
-0.154449
-0.166677
-0.178229
-0.188911
-0.198553
-0.206841
-0.214147
-0.220629
-0.226248
-0.230979
-0.234798
-0.237771
-0.240124
-0.241878
-0.243051
-0.24368
-0.24381
-0.243526
-0.242873
-0.241853
-0.240485
-0.238791
0.0749831
0.0660531
0.0577096
0.0491298
0.0396132
0.0301411
0.0193751
0.0082746
-0.0033341
-0.0160353
-0.0290321
-0.0422666
-0.0560203
-0.0703255
-0.0839187
-0.0975533
-0.111125
-0.124389
-0.136733
-0.148282
-0.159314
-0.16964
-0.179107
-0.187383
-0.194793
-0.201475
-0.207373
-0.212452
-0.216673
-0.220079
-0.222886
-0.225105
-0.226749
-0.227849
-0.228434
-0.228592
-0.228366
-0.22776
-0.22679
-0.225474
0.0681998
0.0601238
0.0525762
0.0448438
0.0363044
0.0278404
0.0182598
0.00840544
-0.00187008
-0.0131004
-0.0246087
-0.0363445
-0.0485548
-0.0613261
-0.0735402
-0.0858604
-0.0981961
-0.110361
-0.121804
-0.132616
-0.143037
-0.152887
-0.162035
-0.170147
-0.177506
-0.184227
-0.190247
-0.195524
-0.200004
-0.203713
-0.206852
-0.209426
-0.21144
-0.212919
-0.213882
-0.21441
-0.21455
-0.214302
-0.213682
-0.2127
0.0621949
0.0548453
0.0479691
0.0409454
0.0332203
0.025588
0.0169856
0.00815829
-0.00102053
-0.0110337
-0.0213005
-0.0317769
-0.0426796
-0.054126
-0.0651296
-0.0762754
-0.0874838
-0.0986139
-0.109177
-0.119238
-0.129009
-0.13832
-0.147061
-0.154908
-0.162102
-0.168742
-0.174762
-0.180112
-0.184734
-0.188635
-0.192001
-0.194832
-0.197125
-0.1989
-0.200167
-0.200999
-0.201445
-0.2015
-0.201181
-0.200491
0.0568558
0.0501318
0.0438305
0.0374088
0.0303732
0.0234387
0.0156566
0.00768835
-0.000575387
-0.00956939
-0.018791
-0.028202
-0.037992
-0.0482946
-0.0582397
-0.068344
-0.078537
-0.0887136
-0.0984423
-0.10777
-0.116886
-0.125632
-0.133918
-0.141432
-0.148385
-0.154858
-0.160784
-0.166114
-0.170783
-0.174783
-0.178289
-0.181291
-0.183784
-0.185781
-0.187283
-0.188359
-0.189053
-0.189362
-0.189297
-0.188856
0.0520894
0.0459101
0.0401073
0.0342044
0.0277605
0.0214203
0.0143356
0.00709585
-0.000394263
-0.00852507
-0.0168583
-0.0253608
-0.0341987
-0.0435114
-0.0525306
-0.0617138
-0.0709985
-0.0803072
-0.0892593
-0.0978903
-0.106368
-0.114548
-0.122356
-0.129499
-0.13616
-0.142407
-0.148174
-0.153411
-0.158053
-0.16208
-0.165652
-0.168755
-0.17138
-0.173534
-0.175212
-0.176476
-0.177368
-0.177882
-0.178028
-0.177797
0.0478188
0.0421184
0.0367525
0.0313018
0.0253719
0.0195444
0.0130601
0.0064457
-0.000382477
-0.00777426
-0.0153453
-0.0230666
-0.0310841
-0.0395364
-0.0477442
-0.0561133
-0.0645884
-0.0731124
-0.08135
-0.0893286
-0.0971973
-0.104826
-0.112153
-0.118907
-0.125247
-0.13123
-0.136792
-0.141885
-0.146443
-0.150441
-0.15402
-0.157166
-0.159866
-0.162122
-0.163925
-0.165328
-0.166372
-0.167049
-0.167365
-0.167308
0.0439804
0.0387042
0.0337247
0.0286722
0.0231935
0.0178136
0.0118518
0.00577994
-0.000475793
-0.0072286
-0.0141397
-0.0211839
-0.0284895
-0.0361905
-0.0436849
-0.0513335
-0.0590871
-0.066904
-0.0744888
-0.0818628
-0.089159
-0.0962597
-0.103116
-0.109477
-0.115482
-0.121179
-0.126507
-0.13142
-0.135854
-0.139777
-0.143319
-0.146461
-0.149189
-0.1515
-0.153383
-0.154885
-0.15604
-0.156842
-0.157294
-0.157378
0.0405208
0.0356231
0.0309881
0.0262892
0.02121
0.0162246
0.0107219
0.00512533
-0.000630536
-0.00682587
-0.0131608
-0.0196137
-0.0262972
-0.0333384
-0.0402031
-0.0472126
-0.0543226
-0.0615033
-0.0684938
-0.075311
-0.0820737
-0.0886761
-0.0950798
-0.101054
-0.10672
-0.112121
-0.117198
-0.121906
-0.126186
-0.130003
-0.133472
-0.136574
-0.139292
-0.141622
-0.143548
-0.145111
-0.146344
-0.147237
-0.147794
-0.14799
0.0373945
0.0328366
0.0285111
0.0241287
0.0194059
0.0147709
0.00967488
0.00449839
-0.000816935
-0.0065219
-0.0123501
-0.0182827
-0.0244189
-0.0308777
-0.0371842
-0.0436248
-0.0501597
-0.0567676
-0.063218
-0.0695246
-0.0757933
-0.0819293
-0.0879023
-0.0935019
-0.0988344
-0.103937
-0.108753
-0.113243
-0.11735
-0.121037
-0.124407
-0.127441
-0.130119
-0.132436
-0.134375
-0.135971
-0.137252
-0.13821
-0.138843
-0.139125
0.034563
0.0303118
0.0262658
0.0221688
0.0177661
0.0134448
0.0087116
0.00390909
-0.00101501
-0.00628539
-0.0116648
-0.0171366
-0.0227883
-0.0287303
-0.0345395
-0.0404719
-0.0464914
-0.0525832
-0.058543
-0.0643819
-0.0701949
-0.0758966
-0.0814636
-0.0867044
-0.0917125
-0.09652
-0.101075
-0.10534
-0.109262
-0.112803
-0.116056
-0.118999
-0.121615
-0.123896
-0.125823
-0.127427
-0.128732
-0.129729
-0.130417
-0.130763
0.031993
0.02802
0.024228
0.0203896
0.0162764
0.0122379
0.00783057
0.003363
-0.00121158
-0.00609435
-0.0110735
-0.0161346
-0.0213549
-0.0268358
-0.0322
-0.0376765
-0.0432329
-0.0488586
-0.0543725
-0.0597837
-0.0651769
-0.070476
-0.0756624
-0.0805626
-0.085259
-0.0897796
-0.0940766
-0.0981148
-0.101846
-0.105231
-0.108353
-0.111192
-0.113728
-0.115954
-0.11785
-0.119441
-0.120751
-0.121767
-0.122489
-0.12288
0.029656
0.0259365
0.0223762
0.0187735
0.0149232
0.0111412
0.0070283
0.00286279
-0.00139742
-0.00593246
-0.0105527
-0.0152456
-0.0200796
-0.0251474
-0.0301119
-0.0351779
-0.0403164
-0.0455201
-0.0506283
-0.0556482
-0.0606555
-0.065582
-0.0704133
-0.0749921
-0.0793914
-0.0836357
-0.0876811
-0.0914951
-0.0950328
-0.0982566
-0.10124
-0.103964
-0.106408
-0.108565
-0.110414
-0.111977
-0.113275
-0.114295
-0.115034
-0.115455
0.0275271
0.0240394
0.0206917
0.0173048
0.0136943
0.010146
0.00630058
0.00240897
-0.00156682
-0.00578813
-0.0100848
-0.0144461
-0.0189324
-0.0236284
-0.0282324
-0.0329278
-0.0376881
-0.0425087
-0.0472467
-0.0519083
-0.0565609
-0.0611431
-0.0656439
-0.069921
-0.074039
-0.0780193
-0.0818217
-0.0854163
-0.0887621
-0.0918224
-0.094663
-0.0972644
-0.0996086
-0.101686
-0.103477
-0.105
-0.106272
-0.107282
-0.108026
-0.108463
0.0255847
0.0223098
0.0191576
0.0159692
0.0125787
0.0092444
0.00564287
0.00200057
-0.00171677
-0.00565365
-0.00965727
-0.0137183
-0.0178903
-0.0222499
-0.0265273
-0.0308869
-0.0353043
-0.0397766
-0.0441763
-0.048509
-0.0528353
-0.0570995
-0.0612932
-0.065288
-0.0691407
-0.0728701
-0.0764396
-0.079822
-0.0829794
-0.0858767
-0.0885728
-0.0910486
-0.0932869
-0.0952779
-0.0970026
-0.0984756
-0.0997126
-0.100702
-0.101439
-0.101882
0.0238099
0.0207309
0.0177595
0.0147541
0.0115659
0.00842839
0.00505032
0.00163602
-0.00184544
-0.00552334
-0.00926038
-0.0130484
-0.016935
-0.0209894
-0.0249697
-0.0290237
-0.033129
-0.0372838
-0.0413743
-0.0454053
-0.049431
-0.0534014
-0.0573099
-0.0610407
-0.0646441
-0.0681362
-0.0714839
-0.0746621
-0.0776365
-0.0803736
-0.0829256
-0.0852745
-0.087404
-0.089304
-0.0909562
-0.0923725
-0.0935666
-0.0945273
-0.095249
-0.0956881
0.0221861
0.0192881
0.016484
0.0136481
0.0106467
0.00769079
0.00451804
0.00131304
-0.00195216
-0.0053933
-0.00888687
-0.0124257
-0.0160521
-0.0198286
-0.0235382
-0.0273132
-0.0311334
-0.034998
-0.038805
-0.0425588
-0.0463077
-0.0500066
-0.0536505
-0.0571347
-0.0605041
-0.0637727
-0.0669099
-0.069893
-0.0726907
-0.0752714
-0.0776818
-0.0799045
-0.081924
-0.0837305
-0.0853062
-0.0866609
-0.0878066
-0.0887321
-0.0894316
-0.0898606
0.0206985
0.0179681
0.0153194
0.0126409
0.00981241
0.00702476
0.00404139
0.00102915
-0.0020371
-0.00526105
-0.00853145
-0.0118421
-0.0152305
-0.018753
-0.0222146
-0.0257344
-0.0292939
-0.0328925
-0.0364392
-0.0399378
-0.0434314
-0.0468794
-0.0502777
-0.053532
-0.0566822
-0.0597404
-0.0626785
-0.0654759
-0.0681041
-0.0705336
-0.0728058
-0.0749043
-0.0768143
-0.0785263
-0.0800233
-0.0813132
-0.0824064
-0.0832921
-0.0839642
-0.0843778
0.0193342
0.0167592
0.0142553
0.0117234
0.00905547
0.00642396
0.00361576
0.000781707
-0.0021009
-0.00512496
-0.00819012
-0.0112911
-0.0144612
-0.0177508
-0.0209849
-0.0242705
-0.0275905
-0.0309449
-0.0342523
-0.0375157
-0.0407736
-0.0439894
-0.0471598
-0.0501998
-0.0531448
-0.0560053
-0.0587556
-0.061377
-0.0638434
-0.0661273
-0.0682656
-0.070243
-0.072045
-0.0736628
-0.0750803
-0.0763036
-0.0773417
-0.0781844
-0.0788253
-0.0792194
0.0180816
0.0156512
0.0132824
0.0108873
0.00836884
0.00588265
0.00323695
0.000568104
-0.00214456
-0.00498414
-0.00786008
-0.0107678
-0.0137369
-0.0168125
-0.0198372
-0.0229073
-0.0260071
-0.0291369
-0.0322236
-0.0352698
-0.03831
-0.0413108
-0.0442697
-0.04711
-0.0498631
-0.0525381
-0.0551116
-0.0575664
-0.0598789
-0.0620233
-0.0640327
-0.0658925
-0.0675891
-0.0691141
-0.0704521
-0.0716081
-0.0725898
-0.0733874
-0.0739944
-0.074366
0.0169306
0.0146348
0.0123925
0.0101253
0.00774615
0.00539559
0.00290104
0.000385658
-0.00216932
-0.00483821
-0.00753924
-0.0102683
-0.0130518
-0.01593
-0.0187616
-0.021633
-0.0245299
-0.0274528
-0.0303359
-0.0331813
-0.0360199
-0.0388215
-0.041584
-0.044238
-0.0468117
-0.0493129
-0.0517201
-0.0540177
-0.0561841
-0.0581955
-0.0600813
-0.0618277
-0.063422
-0.0648562
-0.0661159
-0.0672047
-0.0681295
-0.0688807
-0.0694521
-0.0697991
0.0158719
0.0137019
0.011578
0.00943065
0.00718159
0.0049579
0.00260419
0.000231688
-0.00217656
-0.00468706
-0.00722594
-0.00978953
-0.0124011
-0.015097
-0.01775
-0.020438
-0.0231477
-0.0258795
-0.0285743
-0.0312338
-0.0338857
-0.0365024
-0.0390823
-0.0415628
-0.0439688
-0.0463072
-0.0485582
-0.0507076
-0.0527358
-0.0546206
-0.0563882
-0.0580258
-0.0595215
-0.0608674
-0.0620503
-0.0630729
-0.0639409
-0.0646454
-0.0651802
-0.0655012
0.0148974
0.012845
0.0108321
0.00879721
0.00666999
0.00456517
0.00234292
0.000103791
-0.00216762
-0.00453082
-0.00691903
-0.00932896
-0.0117813
-0.0143084
-0.016796
-0.0193142
-0.0218507
-0.0244058
-0.0269262
-0.0294134
-0.031892
-0.0343371
-0.0367473
-0.0390659
-0.0413152
-0.0435011
-0.0456056
-0.0476155
-0.049513
-0.0512777
-0.0529328
-0.0544664
-0.0558672
-0.057128
-0.0582362
-0.0591939
-0.060006
-0.0606639
-0.0611616
-0.0614557
0.0139996
0.0120573
0.0101488
0.00821957
0.00620663
0.0042134
0.00211414
-3.32402e-07
-0.00214397
-0.0043699
-0.00661777
-0.00888471
-0.0111891
-0.0135598
-0.015894
-0.0182547
-0.0206308
-0.0230221
-0.0253808
-0.027708
-0.0300257
-0.0323114
-0.0345635
-0.0367312
-0.0388341
-0.0408772
-0.0428442
-0.0447229
-0.0464971
-0.0481481
-0.0496963
-0.0511307
-0.0524408
-0.0536197
-0.0546558
-0.0555503
-0.0563075
-0.0569195
-0.0573802
-0.057647
0.0131719
0.0113329
0.00952255
0.00769287
0.00578725
0.00389894
0.00191489
-8.28623e-05
-0.00210692
-0.0042047
-0.00632167
-0.00845533
-0.0106221
-0.0128475
-0.0150393
-0.0172538
-0.0194809
-0.0217203
-0.0239287
-0.0261073
-0.0282754
-0.0304127
-0.0325177
-0.0345444
-0.0365105
-0.03842
-0.0402581
-0.0420135
-0.0436716
-0.045215
-0.0466619
-0.048002
-0.0492255
-0.050326
-0.0512926
-0.052126
-0.0528299
-0.0533968
-0.053821
-0.0540605
0.0124083
0.0106664
0.0089486
0.00721267
0.00540793
0.00361839
0.00174243
-0.000145832
-0.00205776
-0.00403575
-0.00603052
-0.00803987
-0.0100784
-0.0121688
-0.0142279
-0.0163065
-0.0183951
-0.0204932
-0.022562
-0.0246022
-0.0266311
-0.0286302
-0.0305982
-0.0324933
-0.0343314
-0.0361159
-0.037833
-0.0394727
-0.0410214
-0.0424632
-0.0438142
-0.0450649
-0.0462061
-0.0472317
-0.0481317
-0.0489062
-0.0495585
-0.0500816
-0.0504699
-0.0506825
0.0117034
0.0100528
0.00842238
0.00677494
0.00506511
0.00336864
0.00159422
-0.0001912
-0.00199791
-0.00386379
-0.00574431
-0.00763756
-0.00955648
-0.0115211
-0.0134565
-0.0154084
-0.017368
-0.0193347
-0.0212734
-0.0231847
-0.025084
-0.0269543
-0.0287945
-0.0305668
-0.0322851
-0.0339525
-0.0355564
-0.0370874
-0.0385332
-0.0398792
-0.0411396
-0.0423056
-0.0433686
-0.0443228
-0.0451591
-0.0458773
-0.0464798
-0.0469606
-0.047314
-0.0475
0.0110522
0.00948766
0.00793977
0.00637595
0.00475558
0.00314689
0.00146795
-0.000220829
-0.00192877
-0.00368961
-0.00546318
-0.00724781
-0.00905493
-0.0109021
-0.0127222
-0.0145558
-0.0163952
-0.0182394
-0.0200569
-0.0218479
-0.0236263
-0.0253766
-0.0270974
-0.0287549
-0.0303612
-0.031919
-0.0334168
-0.0348459
-0.036195
-0.0374507
-0.0386256
-0.0397114
-0.0407003
-0.0415868
-0.0423623
-0.0430266
-0.0435815
-0.0440214
-0.0443409
-0.044501
0.0104502
0.00896679
0.007497
0.00601228
0.0044763
0.00295052
0.00136143
-0.000236457
-0.00185156
-0.00351392
-0.00518727
-0.00687012
-0.00857258
-0.0103101
-0.0120222
-0.0137455
-0.0154726
-0.0172026
-0.0189068
-0.0205856
-0.0222511
-0.0238893
-0.0254988
-0.027049
-0.0285506
-0.0300058
-0.0314041
-0.0327376
-0.0339958
-0.0351665
-0.0362608
-0.0372708
-0.0381896
-0.0390118
-0.0397297
-0.0403425
-0.0408519
-0.0412526
-0.0415395
-0.0416743
0.00989334
0.0084865
0.00709064
0.00568079
0.0042245
0.00277708
0.00127263
-0.000239675
-0.00176742
-0.00333734
-0.00491664
-0.00650402
-0.00810841
-0.00974336
-0.0113544
-0.0129745
-0.0145967
-0.0162199
-0.0178185
-0.0193924
-0.0209525
-0.022486
-0.0239915
-0.0254412
-0.0268448
-0.028204
-0.0295091
-0.0307529
-0.0319258
-0.0330165
-0.0340348
-0.0349735
-0.035826
-0.0365874
-0.0372505
-0.0378144
-0.0382804
-0.0386436
-0.0388991
-0.0390095
0.00937791
0.00804339
0.00671757
0.00537864
0.00399767
0.00262436
0.00119973
-0.000231912
-0.00167737
-0.00316041
-0.00465138
-0.0061491
-0.00766149
-0.00920039
-0.0107168
-0.0122402
-0.0137642
-0.0152878
-0.0167875
-0.0182634
-0.0197249
-0.0211606
-0.0225688
-0.0239246
-0.0252365
-0.0265058
-0.0277236
-0.0288832
-0.0299759
-0.0309914
-0.0319382
-0.0328097
-0.0335997
-0.0343037
-0.034915
-0.0354324
-0.0358571
-0.0361846
-0.03641
-0.0364969
0.00890054
0.00763439
0.00637496
0.00510327
0.00379351
0.00249038
0.00114106
-0.00021447
-0.00158234
-0.00298364
-0.00439155
-0.00580502
-0.00723102
-0.00867988
-0.0101075
-0.0115403
-0.0129725
-0.0144028
-0.01581
-0.0171941
-0.0185636
-0.0199077
-0.021225
-0.0224929
-0.0237189
-0.024904
-0.0260399
-0.0271207
-0.0281381
-0.0290829
-0.0299625
-0.0307709
-0.031502
-0.0321518
-0.032714
-0.0331875
-0.033573
-0.0338664
-0.0340631
-0.0341275
0.00845818
0.0072567
0.00606023
0.00485231
0.00360994
0.00237329
0.00109512
-0.000188542
-0.00148319
-0.00280751
-0.00413726
-0.00547148
-0.00681629
-0.0081807
-0.00952505
-0.0108729
-0.012219
-0.0135619
-0.0148826
-0.0161808
-0.017464
-0.0187225
-0.0199547
-0.0211403
-0.0222859
-0.023392
-0.0244514
-0.0254582
-0.0264051
-0.0272835
-0.0281
-0.0288489
-0.0295246
-0.0301234
-0.0306393
-0.0310712
-0.0314197
-0.0316807
-0.0318501
-0.031893
0.00804802
0.00690775
0.00577103
0.00462363
0.00344508
0.00227146
0.00106054
-0.000155219
-0.00138071
-0.00263248
-0.00388862
-0.00514822
-0.00641669
-0.00770179
-0.00896791
-0.0102361
-0.0115015
-0.0127625
-0.014002
-0.0152198
-0.0164222
-0.0176005
-0.0187532
-0.0198617
-0.0209319
-0.0219642
-0.0229518
-0.0238893
-0.0247701
-0.0255862
-0.0263434
-0.0270364
-0.0276601
-0.0282107
-0.028683
-0.0290757
-0.0293892
-0.0296197
-0.0297632
-0.0297856
0.00766752
0.00658523
0.00550523
0.0044153
0.00329721
0.00218335
0.00103604
-0.000115497
-0.00127563
-0.00245897
-0.00364572
-0.00483503
-0.00603164
-0.00724225
-0.00843482
-0.00962817
-0.0108178
-0.0120021
-0.0131656
-0.0143079
-0.0154347
-0.0165379
-0.0176161
-0.0186524
-0.019652
-0.0206151
-0.0215354
-0.0224081
-0.0232268
-0.0239845
-0.0246861
-0.0253266
-0.0259013
-0.0264068
-0.0268381
-0.0271939
-0.0274744
-0.0276762
-0.0277952
-0.0277982
0.00731434
0.00628698
0.00526087
0.00422551
0.00316474
0.0021076
0.00102048
-7.02902e-05
-0.00116861
-0.00228738
-0.00340868
-0.00453173
-0.00566066
-0.00680123
-0.00792464
-0.00904766
-0.0101662
-0.0112785
-0.0123706
-0.0134422
-0.0144981
-0.015531
-0.0165393
-0.0175081
-0.0184415
-0.0193398
-0.0201972
-0.021009
-0.0217697
-0.0224726
-0.023122
-0.0237133
-0.0242421
-0.0247052
-0.025098
-0.0254192
-0.0256688
-0.0258435
-0.0259394
-0.0259242
0.00698633
0.00601107
0.00503616
0.00405266
0.00304624
0.00204295
0.00101282
-2.04293e-05
-0.00106026
-0.00211805
-0.00317759
-0.00423814
-0.0053033
-0.00637798
-0.00743629
-0.00849321
-0.00954488
-0.0105897
-0.0116149
-0.01262
-0.0136094
-0.0145764
-0.0155194
-0.0164248
-0.0172962
-0.0181338
-0.0189322
-0.0196871
-0.0203934
-0.021045
-0.0216454
-0.0221907
-0.0226765
-0.0230998
-0.0234566
-0.0237454
-0.023966
-0.0241153
-0.0241897
-0.0241576
0.00668155
0.00575569
0.00482945
0.00389525
0.00294039
0.00198824
0.0010121
3.33258e-05
-0.000951142
-0.00195132
-0.00295254
-0.00395411
-0.00495914
-0.0059718
-0.00696882
-0.00796355
-0.00895242
-0.00993381
-0.0108962
-0.011839
-0.0127661
-0.0136713
-0.014553
-0.0153989
-0.0162123
-0.016993
-0.0177362
-0.0184378
-0.0190932
-0.0196966
-0.0202513
-0.0207534
-0.021199
-0.0215853
-0.0219083
-0.0221667
-0.0223603
-0.022486
-0.0225403
-0.0224926
0.00639819
0.00551921
0.00463925
0.00375192
0.002846
0.00194242
0.00101744
9.02831e-05
-0.000841757
-0.00178747
-0.00273361
-0.00367948
-0.00462779
-0.00558204
-0.00652134
-0.00745754
-0.00838736
-0.00930917
-0.0102125
-0.0110968
-0.0119654
-0.0128126
-0.013637
-0.0144272
-0.0151861
-0.0159136
-0.016605
-0.0172568
-0.0178645
-0.0184229
-0.0189348
-0.0193966
-0.0198046
-0.0201562
-0.0204478
-0.020678
-0.0208463
-0.0209501
-0.0209859
-0.020924
0.00613459
0.00530012
0.00446417
0.00362143
0.00276196
0.00190454
0.00102806
0.000149814
-0.000732564
-0.00162677
-0.00252084
-0.0034141
-0.00430887
-0.0052081
-0.006093
-0.00697411
-0.00784838
-0.00871419
-0.00956205
-0.0103914
-0.0112051
-0.011998
-0.0127685
-0.0135065
-0.0142145
-0.014892
-0.015535
-0.0161401
-0.0167032
-0.0172195
-0.0176914
-0.0181155
-0.0184885
-0.0188078
-0.0190701
-0.019274
-0.019419
-0.0195027
-0.0195213
-0.0194466
0.00588924
0.00509703
0.00430295
0.00350261
0.00268727
0.00187371
0.00104322
0.000211356
-0.000623963
-0.00146946
-0.00231429
-0.00315782
-0.00400206
-0.00484943
-0.00568305
-0.00651227
-0.00733427
-0.00814745
-0.00894318
-0.00972091
-0.0104831
-0.011225
-0.011945
-0.0126341
-0.0132942
-0.0139251
-0.0145227
-0.0150841
-0.0156055
-0.0160825
-0.016517
-0.016906
-0.0172463
-0.0175355
-0.0177706
-0.0179502
-0.0180737
-0.0181388
-0.0181419
-0.0180559
0.00566073
0.00490866
0.00415443
0.00339444
0.002621
0.00184915
0.00106228
0.000274394
-0.000516317
-0.00131572
-0.00211399
-0.00291052
-0.00370704
-0.00450551
-0.00529077
-0.00607111
-0.00684391
-0.00760758
-0.00835432
-0.00908354
-0.00979732
-0.0104913
-0.011164
-0.0118072
-0.0124225
-0.0130096
-0.0135649
-0.0140854
-0.0145678
-0.015008
-0.0154077
-0.0157639
-0.0160738
-0.0163351
-0.016545
-0.0167021
-0.0168059
-0.016854
-0.0168432
-0.0167472
0.00544778
0.00473385
0.00401753
0.00329594
0.00256231
0.0018301
0.00108463
0.000338459
-0.000409958
-0.00116573
-0.00191996
-0.00267206
-0.0034235
-0.00417584
-0.0049155
-0.00564976
-0.00637623
-0.00709334
-0.007794
-0.00847762
-0.00914596
-0.00979504
-0.0104234
-0.0110235
-0.0115968
-0.0121429
-0.0126585
-0.0131408
-0.0135868
-0.0139926
-0.0143597
-0.0146854
-0.0149671
-0.0152025
-0.0153891
-0.0155256
-0.0156112
-0.015644
-0.0156207
-0.0155163
0.0052492
0.00457151
0.00389128
0.00320622
0.00251042
0.00181592
0.00110971
0.000403129
-0.000305183
-0.00101964
-0.00173221
-0.0024423
-0.00315113
-0.00385997
-0.00455658
-0.00524742
-0.00593025
-0.00660353
-0.00726085
-0.0079016
-0.00852725
-0.00913415
-0.00972084
-0.0102806
-0.0108145
-0.0113223
-0.0118007
-0.0122473
-0.0126592
-0.013033
-0.0133698
-0.0136671
-0.0139225
-0.014134
-0.0142991
-0.0144165
-0.0144857
-0.0145046
-0.0144703
-0.0143589
0.00506386
0.00442064
0.00377476
0.00312448
0.00246463
0.00180597
0.00113705
0.000468019
-0.000202257
-0.000877599
-0.00155073
-0.00222108
-0.00288966
-0.00355743
-0.00421342
-0.00486332
-0.00550503
-0.00613708
-0.00675362
-0.00735405
-0.00793958
-0.00850688
-0.00905449
-0.00957634
-0.0100734
-0.0105452
-0.0109889
-0.0114022
-0.0117822
-0.0121261
-0.0124347
-0.0127056
-0.0129366
-0.0131259
-0.0132712
-0.0133713
-0.0134255
-0.013432
-0.013388
-0.013271
0.0048908
0.00428033
0.00366714
0.00304996
0.00242428
0.00179972
0.00116617
0.000532784
-0.000101413
-0.000739707
-0.00137552
-0.00200826
-0.00263879
-0.00326781
-0.00388546
-0.00449673
-0.00509971
-0.00569293
-0.00627111
-0.00683361
-0.00738143
-0.00791153
-0.00842249
-0.00890882
-0.00937134
-0.0098095
-0.0102207
-0.0106027
-0.0109531
-0.011269
-0.0115513
-0.0117977
-0.0120061
-0.0121749
-0.012302
-0.0123862
-0.0124269
-0.0124223
-0.01237
-0.0122485
0.00472903
0.00414972
0.00356766
0.00298198
0.00238877
0.00179664
0.00119668
0.000597115
-2.85774e-06
-0.000606059
-0.00120653
-0.0018037
-0.00239826
-0.00299068
-0.00357213
-0.00414698
-0.00471344
-0.00527011
-0.00581218
-0.00633899
-0.00685137
-0.00734652
-0.00782308
-0.0082761
-0.00870622
-0.00911287
-0.00949363
-0.00984649
-0.0101692
-0.0104591
-0.0107168
-0.0109404
-0.0111279
-0.0112778
-0.0113881
-0.0114578
-0.0114862
-0.0114718
-0.0114123
-0.0112875
0.00457774
0.00402804
0.0034756
0.00291991
0.00235757
0.00179626
0.00122819
0.000660734
9.32275e-05
-0.000476729
-0.00104374
-0.00160725
-0.00216779
-0.00272566
-0.00327293
-0.00381342
-0.00434546
-0.0048677
-0.00537576
-0.00586899
-0.00634806
-0.00681038
-0.00725467
-0.00767643
-0.00807617
-0.00845331
-0.00880562
-0.00913122
-0.00942799
-0.00969364
-0.00992857
-0.010131
-0.0102991
-0.0104314
-0.0105263
-0.0105827
-0.0106001
-0.010577
-0.0105113
-0.0103842
0.00443608
0.00391455
0.00339031
0.00286316
0.00233016
0.00179818
0.00126038
0.000723392
0.000186685
-0.000351777
-0.000887106
-0.00141875
-0.00194712
-0.00247236
-0.00298735
-0.00349541
-0.00399501
-0.00448482
-0.00496086
-0.00542249
-0.00587024
-0.00630173
-0.00671573
-0.00710816
-0.00747943
-0.00782892
-0.00815459
-0.00845472
-0.00872732
-0.0089703
-0.00918398
-0.00936671
-0.00951682
-0.009633
-0.0097137
-0.00975796
-0.00976531
-0.00973442
-0.00966346
-0.00953469
0.00430336
0.00380859
0.0033112
0.00281121
0.00230609
0.001802
0.00129293
0.000784868
0.000277381
-0.000231242
-0.00073657
-0.00123805
-0.001736
-0.00223042
-0.00271492
-0.00319239
-0.00366139
-0.00412064
-0.00456652
-0.00499843
-0.00541673
-0.00581926
-0.00620483
-0.00656975
-0.0069143
-0.00723789
-0.00753864
-0.00781492
-0.00806495
-0.00828678
-0.00848066
-0.00864506
-0.00877847
-0.00887968
-0.0089473
-0.00898044
-0.00897868
-0.00894086
-0.00886535
-0.0087355
0.00417884
0.00370954
0.0032377
0.00276355
0.00228494
0.00180736
0.00132558
0.000844965
0.000365199
-0.00011515
-0.000592067
-0.001065
-0.00153417
-0.00199948
-0.00245519
-0.00290379
-0.00334393
-0.00377439
-0.00419188
-0.0045958
-0.00498643
-0.00536175
-0.00572062
-0.00605971
-0.00637921
-0.00667853
-0.00695593
-0.00720992
-0.00743884
-0.00764093
-0.00781634
-0.00796368
-0.00808157
-0.00816891
-0.00822443
-0.00824734
-0.00823727
-0.0081932
-0.00811371
-0.00798315
0.00406192
0.00361683
0.0031693
0.00271974
0.00226632
0.00181394
0.00135806
0.000903506
0.000450038
-3.52191e-06
-0.000453532
-0.000899452
-0.00134141
-0.00177922
-0.00220772
-0.00262907
-0.00304201
-0.00344534
-0.0038361
-0.00421368
-0.00457828
-0.00492802
-0.00526183
-0.00557668
-0.00587268
-0.00614924
-0.00640478
-0.0066379
-0.00684708
-0.00703072
-0.0071889
-0.00732034
-0.00742379
-0.00749823
-0.00754253
-0.00755599
-0.00753829
-0.00748852
-0.00740547
-0.0072744
0.00395198
0.00352991
0.00310552
0.00267935
0.00224987
0.00182146
0.00139017
0.000960335
0.000531811
0.000103634
-0.000320897
-0.000741245
-0.00115747
-0.0015693
-0.0019721
-0.00236774
-0.00275501
-0.00313279
-0.00349838
-0.00385117
-0.00419128
-0.00451699
-0.00482725
-0.00511934
-0.00539329
-0.00564853
-0.00588358
-0.00609717
-0.00628789
-0.00645427
-0.00659634
-0.00671295
-0.00680293
-0.00686535
-0.00689923
-0.00690391
-0.00687912
-0.00682409
-0.00673776
-0.00660621
0.0038485
0.00344831
0.00304592
0.00264201
0.00223528
0.00182964
0.00142168
0.00101531
0.000610449
0.000206317
-0.000194087
-0.000590233
-0.000982115
-0.00136941
-0.00174794
-0.00211931
-0.00248238
-0.00283609
-0.00317796
-0.00350742
-0.0038245
-0.00412761
-0.00441577
-0.00468648
-0.00493974
-0.00517498
-0.00539085
-0.00558613
-0.00575956
-0.0059098
-0.00603681
-0.00613955
-0.00621694
-0.00626815
-0.00629228
-0.00628876
-0.00625736
-0.00619738
-0.00610795
-0.00597582
0.00375095
0.00337156
0.00299011
0.00260736
0.00222223
0.00183824
0.00145243
0.00106832
0.000685891
0.000304536
-7.30252e-05
-0.00044627
-0.000815133
-0.00117924
-0.00153486
-0.00188331
-0.00222357
-0.0025546
-0.00287414
-0.00318163
-0.00347704
-0.00375892
-0.00402631
-0.00427696
-0.0045108
-0.00472728
-0.00492514
-0.00510329
-0.00526053
-0.00539563
-0.00550855
-0.00559831
-0.00566393
-0.00570464
-0.00571964
-0.00570841
-0.00567076
-0.00560608
-0.00551361
-0.00538073
0.00365887
0.00329924
0.0029377
0.00257507
0.00221047
0.00184703
0.00148224
0.00111925
0.000758091
0.00039831
4.23731e-05
-0.000309203
-0.000656301
-0.000998512
-0.00133248
-0.00165932
-0.00197807
-0.00228772
-0.00258623
-0.00287305
-0.00314808
-0.00340999
-0.00365787
-0.00388967
-0.00410528
-0.00430417
-0.00448516
-0.00464723
-0.0047893
-0.00491024
-0.00500995
-0.00508754
-0.00514212
-0.00517298
-0.00517939
-0.00516089
-0.0051173
-0.00504808
-0.00495259
-0.00481872
0.00357179
0.00323096
0.00288834
0.00254484
0.00219973
0.00185582
0.00151097
0.001168
0.000827013
0.000487662
0.000152194
-0.000178881
-0.000505404
-0.000826937
-0.00114046
-0.00144692