/*--------------------------------*- C++ -*----------------------------------*\
| =========                 |                                                 |
| \\      /  F ield         | OpenFOAM: The Open Source CFD Toolbox           |
|  \\    /   O peration     | Version:  3.0.1                                 |
|   \\  /    A nd           | Web:      www.OpenFOAM.org                      |
|    \\/     M anipulation  |                                                 |
\*---------------------------------------------------------------------------*/
FoamFile
{
    version     2.0;
    format      ascii;
    class       surfaceScalarField;
    location    "500";
    object      phi;
}
// * * * * * * * * * * * * * * * * * * * * * * * * * * * * * * * * * * * * * //

dimensions      [0 3 -1 0 0 0 0];

internalField   nonuniform List<scalar> 
115520
(
0.0123454
-0.00175582
-0.0105896
0.0136392
-0.00129386
0.0140495
-0.00041028
0.0139875
6.19819e-05
0.0136608
0.000326717
0.0131602
0.00050056
0.0126728
0.000487411
0.0122218
0.000450986
0.0117984
0.000423465
0.0114874
0.000311011
0.0112831
0.000204292
0.0111425
0.000140545
0.0110635
7.90815e-05
0.0110836
-2.01331e-05
0.0111487
-6.51354e-05
0.0112418
-9.31155e-05
0.011354
-0.000112159
0.0114924
-0.000138412
0.011647
-0.000154582
0.0118011
-0.00015407
0.0119501
-0.000149002
0.0120906
-0.000140565
0.012231
-0.000140387
0.0123635
-0.000132521
0.0124823
-0.000118798
0.0125863
-0.000104008
0.0126747
-8.83163e-05
0.0127497
-7.50221e-05
0.0128146
-6.49411e-05
0.0128615
-4.68731e-05
0.0128895
-2.80369e-05
0.0128973
-7.78137e-06
0.0128829
1.43885e-05
0.012845
3.79602e-05
0.0127632
8.17676e-05
0.0126439
0.000119267
0.0125056
0.000138315
0.0123652
0.000140432
0.0122408
0.00012436
9.50962e-05
0.0121457
0.00766965
-0.00291525
-0.00651022
0.00871451
-0.00233872
0.00970326
-0.00139903
0.0106007
-0.000835444
0.0113825
-0.000455083
0.0120212
-0.00013816
0.0125246
-1.59853e-05
0.0129088
6.6786e-05
0.0131739
0.000158366
0.0133763
0.000108653
0.0135343
4.62459e-05
0.0136385
3.63824e-05
0.0137021
1.54594e-05
0.0137927
-0.000110777
0.0138766
-0.000148978
0.0139532
-0.000169712
0.0140259
-0.000184875
0.0141189
-0.000231442
0.0142248
-0.000260431
0.0143271
-0.000256375
0.0144253
-0.000247239
0.0145182
-0.000233445
0.0146209
-0.000243065
0.0147208
-0.000232433
0.0148103
-0.000208345
0.0148885
-0.000182195
0.0149544
-0.000154155
0.0150113
-0.000131973
0.0150637
-0.000117364
0.0151012
-8.43633e-05
0.0151239
-5.07508e-05
0.0151329
-1.67324e-05
0.0151297
1.75995e-05
0.0151182
4.94276e-05
0.015096
0.000104014
0.0150581
0.000157122
0.0150054
0.000191049
0.014939
0.000206833
0.0148602
0.000203159
0.000180041
0.0147752
0.00720025
-0.00396771
-0.00614778
0.00816514
-0.00330362
0.00905511
-0.00228899
0.00988182
-0.00166216
0.0105897
-0.00116301
0.0112561
-0.000804485
0.0118203
-0.000580182
0.0123133
-0.000426282
0.0127443
-0.000272589
0.013105
-0.000252104
0.0134122
-0.000260908
0.0136734
-0.000224785
0.0138931
-0.000204325
0.0140985
-0.00031616
0.0142839
-0.000334355
0.0144514
-0.000337174
0.014605
-0.000338492
0.0147611
-0.000387513
0.0149173
-0.000416643
0.0150644
-0.000403525
0.0152028
-0.000385637
0.0153321
-0.000362734
0.0154632
-0.000374187
0.0155874
-0.00035657
0.0156992
-0.000320139
0.015798
-0.000281037
0.0158832
-0.000239319
0.0159571
-0.000205917
0.0160227
-0.000182916
0.0160717
-0.000133405
0.0161039
-8.29444e-05
0.0161188
-3.16233e-05
0.016116
2.03889e-05
0.016098
6.73862e-05
0.0160655
0.000136609
0.0160152
0.000207406
0.0159493
0.000256925
0.0158694
0.000286695
0.0157755
0.0002971
0.000288314
0.0156672
0.00649821
-0.00485801
-0.00560792
0.0073718
-0.00417721
0.00822405
-0.00314124
0.00905258
-0.00249069
0.00980427
-0.0019147
0.0105223
-0.00152253
0.0111623
-0.00122016
0.0117453
-0.00100931
0.0122777
-0.000804952
0.012748
-0.000722452
0.0131676
-0.000680446
0.0135431
-0.000600328
0.0138755
-0.000536665
0.0141771
-0.000617822
0.0144502
-0.000607403
0.0146964
-0.000583447
0.014919
-0.000561099
0.01513
-0.000598477
0.0153306
-0.0006172
0.015516
-0.000588984
0.0156874
-0.000557003
0.0158453
-0.000520615
0.0159988
-0.00052776
0.0161422
-0.000499898
0.0162713
-0.000449268
0.0163859
-0.000395592
0.0164854
-0.000338874
0.0165722
-0.000292678
0.0166487
-0.0002594
0.0167081
-0.000192888
0.0167503
-0.000125069
0.0167747
-5.60151e-05
0.0167809
1.41618e-05
0.0167707
7.75547e-05
0.0167444
0.000162942
0.0166984
0.00025336
0.0166338
0.000321535
0.0165517
0.000368867
0.0164525
0.000396247
0.000404438
0.0163364
0.00617672
-0.00567905
-0.00535568
0.00699404
-0.00499453
0.00780491
-0.00395211
0.00861442
-0.0033002
0.00937262
-0.0026729
0.0101182
-0.00226809
0.0107999
-0.00190184
0.011436
-0.00164548
0.0120339
-0.00140279
0.0125728
-0.00126141
0.0130618
-0.00116942
0.0135105
-0.00104899
0.0139178
-0.000944039
0.0142849
-0.000984872
0.0146202
-0.00094271
0.0149259
-0.000889138
0.015204
-0.000839251
0.0154621
-0.000856501
0.0157027
-0.000857816
0.0159241
-0.000810384
0.0161274
-0.000760324
0.0163135
-0.000706739
0.0164897
-0.000703976
0.0166523
-0.000662493
0.0167986
-0.000595529
0.0169284
-0.00052538
0.0170415
-0.000451978
0.0171398
-0.000390974
0.0172254
-0.000345018
0.0172929
-0.000260413
0.017342
-0.000174177
0.0173724
-8.63973e-05
0.0173838
2.80488e-06
0.0173777
8.36269e-05
0.0173546
0.00018602
0.0173115
0.000296492
0.0172486
0.000384377
0.0171665
0.000451005
0.0170653
0.000497463
0.000524798
0.0169449
0.00594916
-0.00645871
-0.0051695
0.00673068
-0.00577605
0.00751196
-0.00473339
0.00829922
-0.00408746
0.0090531
-0.00342678
0.00980615
-0.00302114
0.0105121
-0.00260783
0.0111846
-0.00231792
0.0118294
-0.00204765
0.012423
-0.00185498
0.0129709
-0.0017173
0.0134825
-0.00156059
0.0139554
-0.00141696
0.0143832
-0.00141262
0.0147772
-0.00133675
0.0151395
-0.00125139
0.0154711
-0.00117091
0.015776
-0.0011614
0.0160577
-0.00113949
0.0163164
-0.00106909
0.0165532
-0.000997171
0.0167692
-0.000922713
0.01697
-0.00090473
0.0171536
-0.000846143
0.0173185
-0.000760395
0.0174646
-0.000671531
0.0175921
-0.000579404
0.0177024
-0.000501364
0.0177978
-0.000440346
0.0178737
-0.000336336
0.01793
-0.00023046
0.0179664
-0.000122813
0.0179827
-1.35223e-05
0.0179804
8.5951e-05
0.0179599
0.000206528
0.0179185
0.000337886
0.0178564
0.000446517
0.0177737
0.000533698
0.0176706
0.000600575
0.000648313
0.017547
0.0058137
-0.00721898
-0.00505343
0.00657676
-0.00653911
0.00734095
-0.00549757
0.00811266
-0.00485917
0.00886044
-0.00417456
0.00961282
-0.00377352
0.01033
-0.00332504
0.011023
-0.00301093
0.0116973
-0.00272196
0.0123286
-0.00248629
0.0129201
-0.00230875
0.0134805
-0.00212097
0.0140064
-0.00194288
0.0144858
-0.00189204
0.0149316
-0.00178251
0.0153451
-0.00166496
0.0157268
-0.00155255
0.0160771
-0.00151169
0.0163998
-0.0014622
0.0166967
-0.00136594
0.0169686
-0.00126908
0.0172164
-0.00117055
0.0174441
-0.00113243
0.0176513
-0.00105333
0.0178372
-0.000946276
0.018002
-0.000836313
0.0181458
-0.000723228
0.0182701
-0.00062569
0.0183767
-0.00054697
0.0184624
-0.000421972
0.0185269
-0.000294963
0.0185701
-0.000166046
0.0185919
-3.53518e-05
0.0185936
8.42414e-05
0.0185757
0.000224425
0.0185359
0.0003777
0.0184743
0.000508184
0.0183909
0.000617103
0.0182858
0.000705609
0.000774893
0.0181592
0.00573386
-0.00797268
-0.00498015
0.00649026
-0.00729552
0.00724777
-0.00625508
0.00801208
-0.00562348
0.00875776
-0.00492025
0.00950943
-0.00452518
0.0102338
-0.00404938
0.01094
-0.00371718
0.0116335
-0.00341539
0.0122913
-0.00314413
0.0129151
-0.00293254
0.0135127
-0.00271861
0.0140805
-0.00251061
0.014603
-0.00241461
0.0150933
-0.00227276
0.0155521
-0.00212381
0.015979
-0.00197945
0.0163719
-0.00190459
0.0167343
-0.00182462
0.0170689
-0.00170051
0.0173762
-0.00157636
0.0176568
-0.00145119
0.0179131
-0.00138868
0.0181457
-0.00128597
0.0183546
-0.00115518
0.01854
-0.00102176
0.0187023
-0.000885445
0.0188425
-0.00076588
0.0189622
-0.00066673
0.0190592
-0.000518997
0.0191335
-0.000369194
0.0191849
-0.000217426
0.0192133
-6.38279e-05
0.01922
7.75256e-05
0.0192056
0.000238909
0.0191679
0.000415321
0.0191072
0.000568898
0.0190235
0.000700816
0.0189169
0.000812198
0.00090421
0.0187876
0.00569593
-0.00872871
-0.0049399
0.00645415
-0.00805374
0.00721298
-0.00701391
0.00797723
-0.00638772
0.00872586
-0.00566888
0.00947999
-0.00527931
0.0102117
-0.0047811
0.010929
-0.00443446
0.0116368
-0.00412319
0.0123147
-0.00382203
0.0129634
-0.00358121
0.0135898
-0.0033451
0.0141904
-0.0031112
0.0147485
-0.0029727
0.0152762
-0.00280045
0.015774
-0.00262159
0.0162407
-0.00244614
0.0166723
-0.00233617
0.0170717
-0.0022241
0.0174422
-0.00207094
0.0177837
-0.00191793
0.0180968
-0.00176423
0.018382
-0.00167391
0.018641
-0.00154493
0.018874
-0.00138825
0.0190815
-0.0012292
0.0192635
-0.00106749
0.0194211
-0.000923441
0.0195555
-0.000801167
0.0196654
-0.000628882
0.0197507
-0.000454535
0.0198115
-0.000278227
0.0198478
-0.000100101
0.0198606
6.47761e-05
0.0198504
0.000249079
0.0198157
0.000449975
0.0197566
0.000627999
0.0196732
0.000784264
0.0195655
0.000919846
0.00103586
0.0194339
0.00568958
-0.00949335
-0.00492494
0.00645584
-0.00882
0.00722212
-0.00778019
0.00799232
-0.00715793
0.0087487
-0.00642525
0.00950935
-0.00603996
0.0102507
-0.00552241
0.0109795
-0.00516331
0.0117005
-0.0048442
0.0123957
-0.00451721
0.0130652
-0.00425074
0.0137154
-0.00399529
0.0143428
-0.00373862
0.0149308
-0.00356061
0.0154902
-0.00335994
0.0160214
-0.00315279
0.0165228
-0.00294748
0.0169889
-0.00280231
0.0174223
-0.00265745
0.017826
-0.00247465
0.0181999
-0.00229183
0.018544
-0.00210832
0.0188577
-0.00198759
0.0191429
-0.00183019
0.0194005
-0.00164578
0.0196304
-0.00145917
0.019833
-0.00127009
0.0200089
-0.00109929
0.020159
-0.000951342
0.0202829
-0.000752701
0.0203804
-0.00055204
0.0204516
-0.000349467
0.0204966
-0.000145131
0.0205163
4.5092e-05
0.0205113
0.000254102
0.0204804
0.000480921
0.0204235
0.00068483
0.0203409
0.000866866
0.0202327
0.00102805
0.00116941
0.0200992
0.0057084
-0.0102714
-0.00493038
0.00648745
-0.00959905
0.00726594
-0.00855869
0.00804697
-0.00793896
0.00881529
-0.00719357
0.00958641
-0.00681108
0.0103401
-0.0062761
0.0110823
-0.00590554
0.0118173
-0.00557914
0.0125291
-0.00522909
0.0132179
-0.00493952
0.0138892
-0.00466654
0.0145398
-0.00438928
0.0151538
-0.00417457
0.015741
-0.00394717
0.0163014
-0.00371318
0.0168332
-0.00347925
0.0173303
-0.00329937
0.0177944
-0.00312161
0.0182287
-0.00290897
0.0186327
-0.0026958
0.019006
-0.00248165
0.019347
-0.0023286
0.0196579
-0.00214108
0.0199396
-0.0019274
0.020192
-0.00171158
0.0204153
-0.0014934
0.0206098
-0.0012938
0.0207763
-0.00111784
0.0209147
-0.000891093
0.021025
-0.000662386
0.0211074
-0.000431833
0.0211619
-0.0001996
0.0211891
1.7802e-05
0.0211899
0.000253334
0.0211633
0.000507573
0.0211092
0.000738859
0.0210279
0.000948149
0.0209196
0.00113639
0.00130452
0.0207845
0.00574793
-0.0110665
-0.00495278
0.00654357
-0.0103947
0.00733812
-0.00935324
0.00813397
-0.00873481
0.0089178
-0.0079774
0.00970296
-0.00759623
0.0104719
-0.00704504
0.0112298
-0.0066634
0.0119802
-0.00632962
0.0127095
-0.00595833
0.0134173
-0.00564735
0.0141087
-0.0053579
0.0147808
-0.00506142
0.0154186
-0.00481237
0.016031
-0.00455954
0.0166177
-0.00429986
0.0171768
-0.00403835
0.0177018
-0.00382445
0.0181942
-0.00361396
0.0186567
-0.00337145
0.0190885
-0.00312766
0.0194892
-0.00288232
0.0198562
-0.00269558
0.0201917
-0.00247662
0.0204967
-0.0022324
0.0207711
-0.00198596
0.0210148
-0.00173715
0.021228
-0.00150693
0.021411
-0.00130083
0.0215642
-0.00104433
0.0216877
-0.000785912
0.0217816
-0.00052571
0.0218459
-0.000263916
0.0218813
-1.75282e-05
0.0218883
0.000246337
0.0218663
0.000529524
0.0218155
0.000789717
0.0217358
0.00102778
0.0216276
0.00124458
0.00144096
0.0214912
0.0058051
-0.0118819
-0.0049897
0.00662047
-0.0112101
0.00743428
-0.010167
0.00824828
-0.00954881
0.00905071
-0.00877984
0.00985306
-0.00839858
0.0106399
-0.00783192
0.0114158
-0.00743922
0.0121837
-0.0070976
0.0129317
-0.00670625
0.0136592
-0.00637491
0.0143708
-0.00606945
0.0150639
-0.0057545
0.0157245
-0.00547301
0.0163606
-0.00519562
0.0169717
-0.00491102
0.0175561
-0.00462269
0.0181071
-0.00437547
0.0186256
-0.00413252
0.0191143
-0.00386013
0.0195722
-0.00358552
0.0199985
-0.00330861
0.0203901
-0.00308721
0.0207492
-0.00283575
0.0210767
-0.00255988
0.0213724
-0.0022816
0.021636
-0.00200081
0.0218674
-0.00173836
0.0220669
-0.00150024
0.0222349
-0.00121242
0.0223717
-0.000922694
0.0224773
-0.000631231
0.0225516
-0.000338253
0.0225952
-6.11148e-05
0.0226086
0.000232868
0.0225916
0.00054655
0.0225441
0.000837197
0.0224663
0.00110558
0.0223585
0.00135246
0.00157862
0.0222208
0.00587768
-0.0127202
-0.00503937
0.0067155
-0.0120479
0.00755131
-0.0110028
0.00838633
-0.0103838
0.00921006
-0.00960357
0.0100324
-0.00922092
0.0108397
-0.00863925
0.0116358
-0.00823528
0.0124234
-0.00788516
0.0131915
-0.00747444
0.01394
-0.00712334
0.0146724
-0.00680191
0.0153867
-0.00646878
0.01607
-0.00615626
0.0167292
-0.00585483
0.0173639
-0.00554573
0.0179722
-0.00523104
0.0185478
-0.00495108
0.0190912
-0.00467587
0.0196046
-0.00437356
0.0200871
-0.00406795
0.0205376
-0.00375911
0.0209527
-0.00350231
0.0213343
-0.00321744
0.0216834
-0.00290898
0.0219996
-0.00259775
0.0222826
-0.00228377
0.0225319
-0.00198765
0.0227474
-0.0017158
0.0229302
-0.00139518
0.0230801
-0.00107262
0.0231972
-0.000748342
0.0232816
-0.000422602
0.0233334
-0.000112999
0.0233535
0.000212851
0.0233414
0.000558579
0.0232974
0.000881238
0.0232215
0.0011815
0.0231139
0.00146002
0.00171748
0.022975
0.00596409
-0.0135838
-0.0051005
0.00682676
-0.0129106
0.007687
-0.0118631
0.00854558
-0.0112424
0.00939302
-0.010451
0.0102379
-0.0100658
0.0110679
-0.00946932
0.0118864
-0.00905374
0.0126956
-0.00869436
0.0134858
-0.00826461
0.0142564
-0.00789401
0.0150109
-0.00755638
0.0157471
-0.007205
0.0164533
-0.00686246
0.0171357
-0.00653718
0.0177937
-0.00620372
0.0184255
-0.00586285
0.0190249
-0.00555053
0.0195922
-0.00524318
0.0201295
-0.00491078
0.0206354
-0.0045739
0.0211091
-0.00423278
0.0215467
-0.00393995
0.0219502
-0.00362087
0.0223201
-0.00327891
0.0226561
-0.00293372
0.0229577
-0.00258543
0.0232244
-0.0022543
0.0234558
-0.00194717
0.0236529
-0.00159234
0.0238158
-0.00123548
0.0239443
-0.00087687
0.0240385
-0.000516828
0.0240986
-0.000173093
0.0241251
0.000186337
0.024118
0.000565665
0.0240774
0.000921902
0.0240033
0.0012556
0.0238959
0.00156735
0.00185768
0.0237558
0.00606314
-0.0144749
-0.0051721
0.00695286
-0.0138003
0.00783975
-0.01275
0.00872419
-0.0121268
0.00959756
-0.0113244
0.0104672
-0.0109354
0.0113222
-0.0103243
0.0121651
-0.00989666
0.0129979
-0.00952719
0.0138118
-0.00907852
0.0146063
-0.00868843
0.015384
-0.00833417
0.0161433
-0.00796422
0.0168731
-0.00759233
0.0175791
-0.00724313
0.0182605
-0.00688518
0.0189157
-0.00651804
0.0195388
-0.00617355
0.0201296
-0.00583404
0.0206901
-0.00547125
0.0212189
-0.00510275
0.021715
-0.0047289
0.0221746
-0.00439948
0.0225991
-0.00404541
0.0229893
-0.00366907
0.0233445
-0.00328893
0.0236643
-0.00290523
0.0239478
-0.00253785
0.0241946
-0.00219399
0.0244059
-0.00180358
0.0245814
-0.00141099
0.0247211
-0.00101657
0.024825
-0.000620715
0.0248931
-0.000241222
0.024926
0.00015347
0.0249237
0.000567957
0.0248863
0.000959341
0.0248138
0.00132807
0.0247065
0.00167461
0.0019994
0.0245648
0.00617397
-0.0153954
-0.00525345
0.00709279
-0.0147191
0.00800842
-0.0136656
0.00892086
-0.0130393
0.00982221
-0.0122257
0.0107188
-0.011832
0.0116007
-0.0112062
0.01247
-0.010766
0.0133284
-0.0103856
0.0141678
-0.00991792
0.0149876
-0.00950818
0.0157901
-0.00913668
0.0165735
-0.00874767
0.017328
-0.00834681
0.0180583
-0.00797342
0.0187637
-0.00759063
0.0194426
-0.00719692
0.0200893
-0.00682027
0.0207037
-0.0064484
0.0212872
-0.00605479
0.0218387
-0.00565419
0.0223568
-0.00524707
0.0228378
-0.00488047
0.0232831
-0.00449063
0.023693
-0.004079
0.024067
-0.00366293
0.0244045
-0.00324275
0.0247046
-0.00283791
0.0249665
-0.00245594
0.0251915
-0.00202859
0.0253794
-0.00159886
0.02553
-0.00116719
0.0256433
-0.000734013
0.0257193
-0.000317159
0.0257583
0.000114454
0.0257606
0.000565665
0.0257261
0.000993779
0.0256551
0.00139913
0.0255476
0.00178206
0.00214292
0.0254041
0.00629597
-0.0163474
-0.00534401
0.00724586
-0.015669
0.00819219
-0.0146119
0.00913466
-0.0139818
0.010066
-0.013157
0.0109915
-0.0127576
0.0119023
-0.0121169
0.0127999
-0.0116636
0.0136857
-0.0112714
0.0145523
-0.0107845
0.015399
-0.0103548
0.0162277
-0.00996541
0.0170367
-0.00955669
0.0178169
-0.009127
0.0185725
-0.00872897
0.0193027
-0.00832083
0.0200059
-0.00790008
0.0206767
-0.00749108
0.0213148
-0.00708651
0.0219215
-0.00666151
0.0224955
-0.0062282
0.0230356
-0.00578716
0.0235379
-0.00538276
0.0240036
-0.00495632
0.024433
-0.00450845
0.0248255
-0.00405542
0.0251804
-0.00359767
0.0254967
-0.00315417
0.0257735
-0.00273276
0.026012
-0.00226712
0.026212
-0.00179885
0.0263733
-0.00132845
0.0264957
-0.000856461
0.0265792
-0.000400657
0.0266241
6.95248e-05
0.0266308
0.000559041
0.0265991
0.00102548
0.0265291
0.00146906
0.0264212
0.00189002
0.00228857
0.0262755
0.00642868
-0.0173326
-0.00544339
0.00741154
-0.0166518
0.0083905
-0.0155909
0.00936495
-0.0149562
0.0103281
-0.0141202
0.0112846
-0.0137141
0.0122261
-0.0130584
0.0131539
-0.0125914
0.0140689
-0.0121865
0.0149645
-0.0116801
0.0158397
-0.01123
0.0166961
-0.0108219
0.0175321
-0.0103927
0.0183393
-0.00993414
0.0191212
-0.00951086
0.019877
-0.00907672
0.0206053
-0.0086283
0.0213008
-0.00818659
0.0219631
-0.00774883
0.0225933
-0.00729174
0.0231901
-0.006825
0.0237522
-0.00634928
0.0242759
-0.00590636
0.024762
-0.00544242
0.0252108
-0.00495732
0.0256217
-0.00446626
0.0259938
-0.0039698
0.026326
-0.00348642
0.0266175
-0.00302424
0.0268694
-0.00251895
0.0270812
-0.00201071
0.0272529
-0.00150013
0.0273842
-0.000987811
0.0274751
-0.000491466
0.0275256
1.89332e-05
0.0275363
0.000548357
0.0275071
0.00105474
0.0274379
0.00153819
0.0273291
0.00199881
0.00243671
0.027181
0.0065718
-0.0183531
-0.00555132
0.00758951
-0.0176696
0.00860298
-0.0166044
0.00961131
-0.0159645
0.0106082
-0.0151171
0.0115975
-0.0147034
0.0125715
-0.0140324
0.0135313
-0.0135512
0.0144774
-0.0131326
0.0154036
-0.0126063
0.0163089
-0.0121353
0.0171947
-0.0117076
0.0180591
-0.0112572
0.0188945
-0.0107695
0.0197039
-0.0103203
0.0204866
-0.00985936
0.0212408
-0.00938249
0.0219617
-0.00890757
0.0226489
-0.00843602
0.0233032
-0.00794601
0.0239232
-0.00744499
0.0245076
-0.00693372
0.0250528
-0.00645149
0.0255594
-0.00594908
0.0260278
-0.00542566
0.0264569
-0.00489544
0.0268462
-0.00435908
0.0271944
-0.00383458
0.0275004
-0.00333029
0.0277654
-0.00278393
0.027989
-0.00223428
0.0281709
-0.00168202
0.0283109
-0.00112784
0.0284088
-0.000589347
0.0284648
-3.70712e-05
0.0284792
0.000533892
0.0284521
0.00108188
0.0283834
0.00160685
0.0282734
0.00210881
0.00258776
0.0281224
0.00672515
-0.0194107
-0.00566761
0.00777957
-0.018724
0.00882941
-0.0176542
0.00987352
-0.0170086
0.010906
-0.0161495
0.01193
-0.0157275
0.0129384
-0.0150408
0.0139319
-0.0145447
0.0149109
-0.0141116
0.0158695
-0.0135648
0.0168065
-0.0130723
0.0177231
-0.0126242
0.0186176
-0.0121516
0.0194825
-0.0116345
0.0203207
-0.0111585
0.0211313
-0.0106699
0.0219125
-0.0101637
0.0226599
-0.00965494
0.0233727
-0.00914884
0.0240516
-0.00862497
0.0246954
-0.00808872
0.0253026
-0.00754092
0.0258696
-0.0070185
0.0263971
-0.00647657
0.0268851
-0.00591366
0.0273327
-0.00534308
0.0277392
-0.00476556
0.0281033
-0.00419864
0.0284238
-0.00365087
0.0287019
-0.003062
0.0289371
-0.00246944
0.029129
-0.00187397
0.0292775
-0.00127635
0.0293823
-0.000694086
0.0294435
-9.82492e-05
0.0294614
0.000515923
0.0294361
0.00110719
0.0293676
0.00167539
0.029256
0.00222041
0.00274212
0.0291016
0.00688862
-0.0205071
-0.00579216
0.00798162
-0.019817
0.00906971
-0.0187423
0.0101515
-0.0180904
0.0112213
-0.0172194
0.012282
-0.0167881
0.0133266
-0.0160855
0.0143557
-0.0155737
0.0153693
-0.0151252
0.0163619
-0.0145575
0.0173324
-0.0140428
0.0182814
-0.0135733
0.0192074
-0.0130775
0.0201033
-0.0125304
0.0209716
-0.0120268
0.0218113
-0.0115096
0.0226207
-0.0109731
0.0233955
-0.0104297
0.0241348
-0.0098882
0.0248393
-0.00932943
0.0255074
-0.00875688
0.026138
-0.00817147
0.0267274
-0.00760787
0.0272761
-0.00702527
0.027784
-0.00642165
0.0282504
-0.00580941
0.0286742
-0.00518941
0.0290543
-0.00457871
0.0293895
-0.00398603
0.0296806
-0.00335315
0.0299273
-0.00271614
0.0301292
-0.00207587
0.0302861
-0.0014332
0.0303975
-0.000805494
0.0304636
-0.000164381
0.0304848
0.000494715
0.030461
0.00113099
0.0303922
0.00174417
0.0302786
0.002334
0.00290024
0.0301205
0.00706218
-0.0216444
-0.00592492
0.00819566
-0.0209505
0.00932388
-0.0198705
0.0104452
-0.0192118
0.0115544
-0.0183285
0.0126534
-0.0178871
0.0137361
-0.0171681
0.0148025
-0.0166402
0.0158526
-0.0161753
0.016881
-0.0155859
0.0178866
-0.0150483
0.0188697
-0.0145565
0.0198287
-0.0140365
0.0207572
-0.0134589
0.021657
-0.0129266
0.0225271
-0.0123797
0.0233658
-0.0118118
0.0241691
-0.011233
0.024936
-0.0106551
0.0256668
-0.0100603
0.0263602
-0.00945027
0.0270148
-0.00882606
0.0276271
-0.0082202
0.0281975
-0.00759569
0.0287259
-0.00695002
0.0292113
-0.00629477
0.0296527
-0.00563088
0.030049
-0.00497496
0.0303989
-0.00433591
0.0307032
-0.00365745
0.0309614
-0.00297438
0.0311732
-0.00228767
0.0313383
-0.00159828
0.0314562
-0.000923418
0.0315271
-0.000235268
0.0315513
0.000470516
0.0315287
0.00115358
0.0314594
0.00181353
0.0313434
0.00244998
0.00306255
0.0311811
0.00724587
-0.0228244
-0.00606588
0.00842175
-0.0221264
0.00959202
-0.0210408
0.0107548
-0.0203746
0.0119052
-0.0194788
0.0130446
-0.0190266
0.0141672
-0.0182907
0.0152728
-0.0177457
0.0163611
-0.0172636
0.0174271
-0.0166519
0.0184694
-0.0160907
0.0194883
-0.0155754
0.020482
-0.0150302
0.0214445
-0.0144213
0.0223772
-0.0138593
0.0232791
-0.0132816
0.0241485
-0.0126812
0.0249814
-0.0120659
0.0257769
-0.0114506
0.0265351
-0.0108185
0.0272546
-0.0101698
0.027934
-0.00950546
0.02857
-0.00885616
0.0291627
-0.00818843
0.029712
-0.00749929
0.0302168
-0.00679958
0.0306762
-0.00609031
0.0310889
-0.00538767
0.0314537
-0.00470069
0.0317713
-0.00397502
0.0320411
-0.00324423
0.0322628
-0.00250938
0.0324361
-0.00177152
0.0325604
-0.00104774
0.0326359
-0.00031074
0.0326628
0.000443556
0.0326411
0.00117525
0.0325709
0.00188382
0.0324521
0.00256874
0.00322952
0.0322851
0.0074398
-0.024049
-0.00621511
0.00866003
-0.0233466
0.00987431
-0.0222551
0.0110806
-0.0215808
0.012274
-0.0206722
0.0134557
-0.0202083
0.0146201
-0.0194551
0.0157667
-0.0188924
0.0168951
-0.018392
0.0180005
-0.0177573
0.0190813
-0.0171715
0.0201377
-0.0166317
0.0211678
-0.0160603
0.0221657
-0.0154193
0.0231329
-0.0148265
0.024068
-0.0142167
0.0249694
-0.0135826
0.0258332
-0.0129297
0.0266584
-0.0122758
0.0274451
-0.0116051
0.0281916
-0.0109163
0.0288967
-0.0102106
0.0295571
-0.00951655
0.0301729
-0.00880417
0.0307436
-0.00807006
0.0312684
-0.00732434
0.0317462
-0.00656812
0.0321757
-0.00581716
0.0325556
-0.00508064
0.0328867
-0.00430604
0.0331682
-0.00352578
0.0333999
-0.00274102
0.0335813
-0.0019529
0.0337119
-0.00117836
0.0337918
-0.000390647
0.0338213
0.000414047
0.0338003
0.00119627
0.0337287
0.00195536
0.0336068
0.00269068
0.00340158
0.0334347
0.00764408
-0.0253204
-0.0063727
0.00891068
-0.0246132
0.010171
-0.0235154
0.0114227
-0.0228325
0.0126612
-0.0219107
0.0138871
-0.0214343
0.0150952
-0.0206632
0.0162848
-0.020082
0.0174552
-0.0195624
0.0186018
-0.0189038
0.0197229
-0.0182927
0.0208185
-0.0177273
0.0218865
-0.0171283
0.0229216
-0.0164544
0.0239248
-0.0158296
0.0248946
-0.0151865
0.0258294
-0.0145174
0.0267254
-0.0138258
0.0275816
-0.013132
0.0283978
-0.0124213
0.0291725
-0.011691
0.0299042
-0.0109423
0.0305899
-0.0102022
0.0312293
-0.00944366
0.0318223
-0.00866299
0.0323676
-0.00786963
0.0328642
-0.00706479
0.0333109
-0.00626384
0.0337064
-0.00547608
0.0340511
-0.00465077
0.0343445
-0.00381922
0.0345862
-0.00298269
0.0347757
-0.00214244
0.0349126
-0.00131524
0.0349968
-0.000474871
0.0350287
0.000382178
0.0350081
0.0012169
0.034935
0.00202849
0.0348094
0.00281619
0.00357921
0.0346318
0.00785891
-0.0266406
-0.00653876
0.00917394
-0.0259282
0.0104823
-0.0248237
0.0117815
-0.0241317
0.0130671
-0.0231963
0.0143393
-0.0227065
0.0155931
-0.021917
0.0168276
-0.0213165
0.0180419
-0.0207766
0.0192315
-0.0200934
0.0203948
-0.0194559
0.0215313
-0.0188638
0.0226391
-0.0182362
0.023713
-0.0175283
0.0247537
-0.0168703
0.0257598
-0.0161926
0.0267294
-0.015487
0.027659
-0.0147554
0.0285474
-0.0140204
0.0293944
-0.0132682
0.0301983
-0.0124949
0.0309577
-0.0117017
0.0316695
-0.010914
0.0323336
-0.0101077
0.0329494
-0.00927881
0.0335159
-0.00843609
0.034032
-0.00758088
0.0344963
-0.00672818
0.0349076
-0.0058874
0.0352663
-0.00500949
0.0355719
-0.00412476
0.0358237
-0.00323453
0.0360215
-0.00234019
0.0361646
-0.00145835
0.036253
-0.000563316
0.0362871
0.000348118
0.0362666
0.00123737
0.0361916
0.00210352
0.0360621
0.00294565
0.00376283
0.0358785
0.0080845
-0.0280116
-0.00671345
0.00945009
-0.0272938
0.0108086
-0.0261822
0.0121574
-0.0254805
0.0134921
-0.024531
0.0148127
-0.0240271
0.0161143
-0.0232186
0.0173957
-0.0225979
0.0186558
-0.0220368
0.0198904
-0.0213281
0.0210977
-0.0206632
0.0222771
-0.0200432
0.0234264
-0.0193856
0.0245409
-0.0186427
0.0256207
-0.0179501
0.0266646
-0.0172364
0.0276706
-0.016493
0.0286352
-0.0157201
0.0295572
-0.0149424
0.0304361
-0.0141472
0.0312704
-0.0133292
0.0320586
-0.0124899
0.0327976
-0.011653
0.0334871
-0.0107973
0.0341266
-0.00991832
0.034715
-0.00902443
0.0352511
-0.00811701
0.0357336
-0.0072107
0.0361612
-0.00631502
0.0365343
-0.00538256
0.0368522
-0.00444264
0.0371144
-0.00349671
0.0373204
-0.00254623
0.0374698
-0.0016077
0.0375624
-0.000655914
0.0375985
0.000312017
0.0375779
0.00125792
0.0375007
0.00218075
0.0373669
0.00307944
0.00395292
0.0371768
0.00832111
-0.0294358
-0.00689696
0.00973944
-0.0287121
0.0111503
-0.0275931
0.0125509
-0.0268811
0.0139369
-0.0259171
0.015308
-0.0253982
0.0166594
-0.02457
0.0179897
-0.0239282
0.0192978
-0.0233448
0.0205794
-0.0226097
0.0218326
-0.0219164
0.0230566
-0.0212672
0.0242494
-0.0205784
0.0254061
-0.0197994
0.0265269
-0.0190709
0.0276102
-0.0183197
0.0286541
-0.0175369
0.0296552
-0.0167212
0.0306122
-0.0158994
0.0315245
-0.0150594
0.0323904
-0.0141951
0.0332084
-0.0133079
0.0339756
-0.0124202
0.0346916
-0.0115132
0.0353556
-0.0105824
0.0359666
-0.00963542
0.0365235
-0.00867384
0.0370247
-0.00771197
0.0374691
-0.00675943
0.037857
-0.00577037
0.0381875
-0.00477319
0.0384602
-0.00376944
0.0386747
-0.00276069
0.0388303
-0.00176333
0.038927
-0.000752617
0.038965
0.000274004
0.0389442
0.00127877
0.0388645
0.00226047
0.038726
0.00321793
0.00414993
0.038529
0.00856903
-0.0309153
-0.00708951
0.0100424
-0.0301855
0.0115078
-0.0290586
0.0129624
-0.0283357
0.014402
-0.0273566
0.0158257
-0.0268219
0.0172291
-0.0259733
0.0186105
-0.0253096
0.0199686
-0.0247029
0.0212992
-0.0239403
0.0226004
-0.0232176
0.0238711
-0.0225379
0.0251091
-0.0218165
0.02631
-0.0210002
0.0274734
-0.0202343
0.0285978
-0.0194441
0.0296813
-0.0186204
0.0307205
-0.0177604
0.0317139
-0.0168928
0.0326609
-0.0160064
0.0335597
-0.015094
0.0344088
-0.014157
0.0352053
-0.0132167
0.0359487
-0.0122566
0.0366382
-0.0112719
0.0372727
-0.0102699
0.0378509
-0.0092521
0.0383716
-0.00823262
0.0388333
-0.00722116
0.0392363
-0.00617335
0.0395798
-0.00511673
0.0398633
-0.00405296
0.0400864
-0.00298372
0.0402484
-0.00192529
0.0403491
-0.000853404
0.040389
0.000234192
0.0403676
0.0013001
0.0402851
0.00234298
0.0401415
0.00336151
0.00435431
0.0399372
0.00882856
-0.0324525
-0.00729134
0.0103592
-0.0317161
0.0118816
-0.030581
0.0133926
-0.0298466
0.0148879
-0.028852
0.0163666
-0.0283006
0.0178242
-0.0274309
0.0192589
-0.0267444
0.0206691
-0.0261131
0.0220509
-0.0253221
0.0234021
-0.0245688
0.0247214
-0.0238573
0.0260068
-0.0231018
0.0272536
-0.022247
0.0284615
-0.0214423
0.0296289
-0.0206115
0.0307536
-0.0197451
0.0318324
-0.0188392
0.0328638
-0.0179242
0.0338469
-0.0169895
0.03478
-0.0160271
0.0356614
-0.0150385
0.0364884
-0.0140437
0.0372603
-0.0130285
0.0379762
-0.0119879
0.038635
-0.0109287
0.0392355
-0.00985256
0.0397762
-0.00877333
0.0402558
-0.00770078
0.0406744
-0.00659197
0.0410313
-0.00547364
0.041326
-0.00434756
0.0415577
-0.00321552
0.0417261
-0.00209369
0.041831
-0.000958269
0.0418725
0.000192677
0.0418505
0.00132211
0.0417649
0.00242855
0.0416159
0.00351053
0.00456651
0.0414037
0.00910007
-0.0340499
-0.0075027
0.0106905
-0.0333066
0.0122723
-0.0321627
0.0138419
-0.0314162
0.0153954
-0.0304056
0.0169314
-0.0298366
0.0184455
-0.028945
0.0199357
-0.0282346
0.0214004
-0.0275778
0.0228355
-0.0267572
0.0242388
-0.0259721
0.0256089
-0.0252274
0.0269436
-0.0244365
0.0282383
-0.0235418
0.0294927
-0.0226966
0.0307047
-0.0218235
0.0318725
-0.0209129
0.0329926
-0.0199594
0.0340635
-0.0189951
0.0350842
-0.0180102
0.036053
-0.0169958
0.0369681
-0.0159536
0.0378268
-0.0149024
0.0386283
-0.01383
0.0393717
-0.0127313
0.0400557
-0.0116127
0.0406792
-0.010476
0.0412407
-0.00933481
0.0417388
-0.00819891
0.0421736
-0.00702676
0.0425443
-0.00584435
0.0428503
-0.00465356
0.0430911
-0.00345629
0.043266
-0.00226863
0.043375
-0.00106723
0.0434181
0.00014954
0.0433952
0.00134498
0.0433063
0.00251746
0.0431515
0.00366537
0.00478701
0.042931
0.00938392
-0.0357099
-0.00772388
0.0110366
-0.0349593
0.0126802
-0.0338063
0.014311
-0.0330471
0.0159252
-0.0320197
0.0175209
-0.0314322
0.0190939
-0.030518
0.020642
-0.0297828
0.0221634
-0.0290992
0.0236541
-0.0282479
0.0251118
-0.0274297
0.0265348
-0.0266504
0.0279209
-0.0258225
0.0292656
-0.0248865
0.0305683
-0.0239993
0.031827
-0.0230822
0.0330395
-0.0221254
0.0342027
-0.0211226
0.0353148
-0.0201072
0.0363747
-0.0190701
0.0373806
-0.0180017
0.0383308
-0.0169038
0.0392224
-0.015794
0.0400547
-0.0146622
0.0408266
-0.0135032
0.0415369
-0.012323
0.0421843
-0.0111234
0.0427673
-0.00991783
0.0432846
-0.00871621
0.0437361
-0.00747827
0.0441211
-0.0062293
0.0444388
-0.00497129
0.0446888
-0.00370628
0.0448704
-0.00245025
0.0449835
-0.00118032
0.0450282
0.000104851
0.0450043
0.00136887
0.0449118
0.00260998
0.0447507
0.0038264
0.00501628
0.0445215
0.00968051
-0.0374352
-0.00795521
0.0113981
-0.0366769
0.0131061
-0.0355143
0.0148007
-0.0347417
0.016478
-0.033697
0.0181359