/*--------------------------------*- C++ -*----------------------------------*\
| =========                 |                                                 |
| \\      /  F ield         | OpenFOAM: The Open Source CFD Toolbox           |
|  \\    /   O peration     | Version:  3.0.1                                 |
|   \\  /    A nd           | Web:      www.OpenFOAM.org                      |
|    \\/     M anipulation  |                                                 |
\*---------------------------------------------------------------------------*/
FoamFile
{
    version     2.0;
    format      ascii;
    class       volVectorField;
    location    "500";
    object      U;
}
// * * * * * * * * * * * * * * * * * * * * * * * * * * * * * * * * * * * * * //

dimensions      [0 1 -1 0 0 0 0];

internalField   nonuniform List<vector> 
58000
(
(0.448953 0.954244 -3.82322e-21)
(0.592778 1.06937 2.21487e-22)
(0.731005 1.09928 2.65922e-20)
(0.848068 1.06913 -4.82289e-20)
(0.93822 1.00283 1.78327e-20)
(1.00254 0.916814 1.4469e-20)
(1.05181 0.826373 0)
(1.08692 0.739975 -1.92485e-20)
(1.11167 0.656131 4.74146e-20)
(1.13073 0.579732 1.35743e-20)
(1.14511 0.513937 -3.13266e-20)
(1.15527 0.456008 0)
(1.16203 0.403964 0)
(1.16885 0.36068 1.28875e-20)
(1.17205 0.324852 0)
(1.17289 0.294093 -1.18037e-19)
(1.17186 0.267317 1.16754e-19)
(1.17014 0.244366 -1.25354e-20)
(1.16769 0.225003 9.63357e-20)
(1.16425 0.208045 -9.55909e-20)
(1.16032 0.192709 -9.14149e-20)
(1.15567 0.178424 9.06926e-20)
(1.15118 0.16542 0)
(1.14631 0.153743 8.43717e-20)
(1.141 0.142934 -8.39157e-20)
(1.13542 0.13271 8.07502e-20)
(1.12952 0.12291 3.60381e-21)
(1.12337 0.11352 -7.87319e-20)
(1.1174 0.104851 0)
(1.11098 0.0968303 4.59618e-21)
(1.10423 0.0892125 -4.10921e-20)
(1.09721 0.082008 7.71008e-20)
(1.08945 0.0752443 -6.46688e-22)
(1.08123 0.06906 -3.33128e-20)
(1.07149 0.0632808 -1.60906e-20)
(1.05929 0.0577784 1.72997e-20)
(1.04579 0.0526557 1.05983e-21)
(1.03296 0.0480855 1.03791e-21)
(1.02125 0.04386 -3.11688e-21)
(1.01561 0.0406042 5.37712e-21)
(0.617379 0.547797 -3.25572e-21)
(0.719039 0.607816 3.05001e-21)
(0.817727 0.65062 0)
(0.911665 0.682234 -1.52556e-21)
(1.00034 0.703767 -6.93081e-21)
(1.08226 0.70963 -2.17637e-21)
(1.15369 0.699722 6.99142e-21)
(1.2119 0.679335 1.41121e-20)
(1.26027 0.649387 -1.52186e-20)
(1.29723 0.612818 0)
(1.32305 0.574466 4.16629e-20)
(1.34071 0.534774 -1.21537e-19)
(1.35133 0.493488 -1.70419e-21)
(1.35512 0.454876 5.57021e-21)
(1.3551 0.420153 1.32891e-19)
(1.35234 0.387198 -8.30315e-20)
(1.34732 0.355804 5.80704e-20)
(1.34093 0.327255 -1.33152e-19)
(1.33395 0.302155 -7.10133e-21)
(1.32646 0.279287 6.54376e-20)
(1.31852 0.257886 7.76755e-21)
(1.31023 0.23777 0)
(1.30211 0.219567 0)
(1.29429 0.20332 0)
(1.28647 0.188208 0)
(1.27859 0.173874 6.63075e-20)
(1.27065 0.160241 -5.92003e-20)
(1.26275 0.147415 0)
(1.25517 0.135748 3.17327e-20)
(1.24776 0.124994 -5.92114e-22)
(1.24034 0.114765 -2.44539e-20)
(1.2329 0.105057 -3.50413e-21)
(1.2257 0.0958871 2.36129e-20)
(1.21892 0.0873375 -2.86981e-20)
(1.21283 0.079379 0)
(1.20696 0.0720086 -1.59678e-21)
(1.20108 0.0652513 1.57728e-21)
(1.19542 0.0591445 -8.0365e-22)
(1.19013 0.0533165 -3.12501e-21)
(1.18527 0.0479795 3.24098e-21)
(0.648209 0.494797 5.3634e-22)
(0.694657 0.545035 0)
(0.74841 0.585246 0)
(0.808925 0.615898 -2.19915e-22)
(0.871599 0.635223 -5.10547e-21)
(0.934976 0.644829 8.39492e-21)
(0.996077 0.645498 -8.28661e-21)
(1.05199 0.637312 -1.21411e-20)
(1.10513 0.621487 1.24699e-20)
(1.15198 0.599692 0)
(1.19052 0.573656 0)
(1.22311 0.54408 -8.56137e-21)
(1.25062 0.511658 4.19741e-20)
(1.27128 0.479399 -5.69112e-22)
(1.28618 0.4481 -4.39404e-20)
(1.29714 0.417183 1.21395e-20)
(1.30468 0.387063 5.73331e-20)
(1.30898 0.359025 -1.10595e-20)
(1.31071 0.333667 -4.06135e-20)
(1.31062 0.310123 -3.52884e-20)
(1.30914 0.287908 4.07368e-20)
(1.30651 0.266968 1.11381e-20)
(1.30306 0.247902 0)
(1.29906 0.23069 0)
(1.29458 0.214593 -5.45638e-21)
(1.28969 0.199338 -5.01834e-20)
(1.28445 0.184866 4.47006e-20)
(1.27897 0.171272 -5.3398e-21)
(1.27344 0.158825 -2.77393e-21)
(1.26784 0.147234 -2.74432e-21)
(1.26207 0.136123 0)
(1.25615 0.125442 0)
(1.25008 0.115131 -1.81999e-20)
(1.24397 0.105283 2.09719e-20)
(1.2379 0.0960422 2.51583e-21)
(1.23183 0.0873963 5.08345e-23)
(1.22575 0.0793261 -1.28414e-21)
(1.21987 0.0718517 0)
(1.2143 0.0648012 2.47435e-21)
(1.20906 0.0579729 -2.6081e-21)
(0.717799 0.42428 1.27441e-21)
(0.749501 0.460383 -1.25504e-21)
(0.784096 0.492656 0)
(0.822616 0.5214 -9.59628e-22)
(0.864655 0.543317 2.12166e-21)
(0.909339 0.558616 -1.24979e-21)
(0.955368 0.566817 7.92897e-23)
(0.999781 0.56799 -5.7134e-21)
(1.0438 0.562996 2.1258e-22)
(1.08523 0.552321 0)
(1.12183 0.537116 -4.40973e-21)
(1.15472 0.518066 3.56305e-20)
(1.18439 0.495563 -2.43759e-20)
(1.20875 0.471624 -7.67793e-21)
(1.22814 0.447134 0)
(1.2441 0.421862 2.40133e-20)
(1.25692 0.396177 -4.01249e-20)
(1.26638 0.371289 -2.41955e-20)
(1.27285 0.347958 4.09792e-20)
(1.27716 0.3257 -8.86412e-21)
(1.27977 0.304243 8.14197e-21)
(1.28092 0.283649 -8.93238e-21)
(1.28078 0.264585 -3.41327e-20)
(1.27964 0.247125 3.42608e-20)
(1.27775 0.230653 -3.82654e-21)
(1.27523 0.21494 4.12941e-21)
(1.27216 0.19995 0)
(1.26865 0.185802 4.35486e-21)
(1.26487 0.172777 0)
(1.26086 0.160611 4.06742e-21)
(1.25659 0.148951 -1.65594e-20)
(1.25208 0.13777 1.67501e-20)
(1.24736 0.127039 1.64378e-20)
(1.24249 0.116858 -2.23945e-21)
(1.23756 0.107332 -1.84657e-20)
(1.23252 0.0983158 9.04009e-21)
(1.22734 0.0896873 -8.08873e-21)
(1.22211 0.081473 0)
(1.21693 0.073633 9.745e-22)
(1.21188 0.0661202 0)
(0.756076 0.384687 2.74615e-21)
(0.778228 0.412704 -8.72275e-22)
(0.802649 0.438843 -1.3862e-21)
(0.830095 0.463579 6.79044e-22)
(0.860689 0.484407 0)
(0.894191 0.501182 6.61806e-23)
(0.929988 0.512986 0)
(0.965956 0.519079 -1.93165e-21)
(1.00292 0.520259 4.50215e-21)
(1.03909 0.516446 4.15981e-21)
(1.07244 0.508027 3.504e-21)
(1.10367 0.495686 -4.07428e-21)
(1.13306 0.479842 1.71047e-20)
(1.15846 0.46175 -2.16179e-20)
(1.1798 0.442176 0)
(1.19837 0.421215 5.76738e-21)
(1.21428 0.399245 0)
(1.22704 0.377295 -5.47517e-21)
(1.23677 0.35611 -7.39818e-22)
(1.24424 0.335444 -2.48476e-20)
(1.24991 0.315168 -1.288e-20)
(1.25396 0.29541 -9.33209e-23)
(1.25643 0.276844 1.97245e-20)
(1.2576 0.259608 -2.60229e-20)
(1.2578 0.243201 3.31008e-20)
(1.25721 0.227451 2.92755e-20)
(1.2559 0.212345 -2.66088e-20)
(1.25399 0.19802 -1.99491e-20)
(1.25161 0.184756 2.65758e-20)
(1.24885 0.172308 -2.9657e-20)
(1.24573 0.160349 2.66034e-20)
(1.24229 0.148855 3.22417e-21)
(1.23857 0.137803 0)
(1.23462 0.127289 -1.13864e-20)
(1.23055 0.117419 1.71533e-22)
(1.22633 0.108038 1.30893e-20)
(1.22194 0.0990084 -6.43816e-21)
(1.21742 0.0903554 6.5128e-21)
(1.21282 0.0820739 -4.02605e-21)
(1.20818 0.0741586 3.4299e-21)
(0.789586 0.352931 -2.58161e-21)
(0.80663 0.375024 2.32299e-21)
(0.8249 0.396086 1.08212e-22)
(0.845134 0.416721 -1.42348e-21)
(0.86788 0.435074 6.24003e-22)
(0.893165 0.451106 -6.854e-22)
(0.920933 0.463881 5.46819e-22)
(0.949681 0.472449 -2.19546e-21)
(0.980046 0.477404 3.1048e-21)
(1.01075 0.478267 -9.80027e-21)
(1.04007 0.474963 6.54357e-21)
(1.06838 0.468058 9.67278e-21)
(1.09587 0.457861 -1.46549e-20)
(1.12056 0.44501 3.41952e-21)
(1.1421 0.430148 6.16661e-21)
(1.16155 0.413519 1.52252e-20)
(1.17886 0.395443 -1.54823e-20)
(1.19345 0.376751 4.55897e-21)
(1.2052 0.358141 1.73124e-20)
(1.2148 0.339546 -1.81325e-20)
(1.22265 0.320939 5.04018e-21)
(1.22885 0.302491 1.96009e-20)
(1.23336 0.284851 -1.45823e-20)
(1.23639 0.268221 -4.82015e-21)
(1.23833 0.252218 -2.04112e-20)
(1.23934 0.236722 3.59808e-20)
(1.23953 0.221749 -2.09179e-20)
(1.23898 0.207454 -3.66139e-22)
(1.2378 0.194123 2.09782e-20)
(1.23612 0.181546 -4.21946e-20)
(1.23401 0.169428 2.38937e-20)
(1.23149 0.157755 -2.39811e-20)
(1.22862 0.146512 8.27162e-21)
(1.22546 0.135796 2.13387e-20)
(1.22209 0.125712 -1.06949e-20)
(1.21853 0.116104 -1.05297e-20)
(1.21476 0.106829 1.06572e-20)
(1.2108 0.0979067 5.25632e-21)
(1.20669 0.0893493 -4.67628e-21)
(1.20247 0.0811741 0)
(0.815054 0.328719 6.90693e-22)
(0.82884 0.346649 -1.50608e-21)
(0.843395 0.363905 1.66536e-21)
(0.859262 0.381077 0)
(0.876992 0.396816 0)
(0.896734 0.411189 0)
(0.918672 0.423451 7.73688e-22)
(0.941814 0.432676 6.51199e-22)
(0.966712 0.439368 -7.10801e-22)
(0.992509 0.442896 1.44674e-21)
(1.01782 0.442894 0)
(1.04289 0.439802 2.6011e-21)
(1.06786 0.433841 4.03663e-21)
(1.09097 0.425175 0)
(1.11178 0.414284 -9.54608e-21)
(1.1311 0.40148 -1.09176e-20)
(1.14883 0.387014 1.11098e-20)
(1.16428 0.371505 -1.27028e-20)
(1.17723 0.355557 9.32853e-21)
(1.18824 0.339227 6.50621e-21)
(1.19763 0.322555 -7.80551e-21)
(1.20545 0.305726 -3.01307e-22)
(1.21156 0.289343 1.16302e-20)
(1.21612 0.273644 3.73238e-22)
(1.21952 0.258355 0)
(1.22193 0.243406 0)
(1.22343 0.228838 -1.66441e-20)
(1.2241 0.214819 3.3287e-20)
(1.22401 0.201636 -1.28813e-20)
(1.22333 0.189121 0)
(1.22212 0.177012 -1.9397e-20)
(1.22046 0.165306 1.30028e-22)
(1.21837 0.153998 1.98207e-20)
(1.21592 0.143184 -8.70948e-21)
(1.21319 0.13297 1.09158e-20)
(1.21022 0.123212 8.68484e-21)
(1.207 0.113769 -8.79536e-21)
(1.20354 0.104664 0)
(1.19987 0.0959175 -2.73776e-21)
(1.19604 0.0875547 2.05357e-21)
(0.835983 0.30904 -1.0871e-21)
(0.847548 0.323895 1.44834e-21)
(0.859593 0.338251 0)
(0.872538 0.352646 0)
(0.886876 0.366065 6.35743e-22)
(0.902774 0.378637 -6.37507e-22)
(0.920495 0.389801 8.48892e-23)
(0.939374 0.398761 -5.38233e-22)
(0.959898 0.405968 5.18386e-22)
(0.981518 0.410789 -3.60553e-22)
(1.00317 0.412743 0)
(1.02504 0.41216 -2.25466e-21)
(1.04724 0.409194 7.50769e-21)
(1.06833 0.4037 -8.11711e-21)
(1.0878 0.396005 6.46687e-22)
(1.1063 0.386425 0)
(1.12368 0.375134 0)
(1.13926 0.362557 4.3155e-21)
(1.15272 0.349186 1.56649e-20)
(1.1645 0.335148 -4.28e-20)
(1.17487 0.320519 1.59436e-20)
(1.1838 0.305482 5.52227e-21)
(1.1911 0.290566 3.1958e-21)
(1.19687 0.27603 9.86897e-21)
(1.20146 0.261693 -1.26987e-20)
(1.20504 0.247525 6.87722e-21)
(1.20768 0.233587 -3.14471e-21)
(1.20942 0.220053 -2.03866e-20)
(1.21033 0.207209 -6.90535e-21)
(1.21055 0.194928 0)
(1.21021 0.182986 0)
(1.20934 0.171391 -1.42577e-20)
(1.20799 0.160146 1.09741e-20)
(1.20622 0.14935 1.75955e-21)
(1.20411 0.139113 5.35966e-21)
(1.20169 0.129301 -7.29788e-21)
(1.19899 0.119785 8.8746e-22)
(1.196 0.11059 0)
(1.19276 0.101737 4.46565e-22)
(1.18931 0.0932595 2.48995e-22)
(0.853239 0.292727 -9.69939e-23)
(0.863197 0.30525 -3.99716e-23)
(0.873474 0.317373 1.58308e-21)
(0.884393 0.329566 8.34148e-22)
(0.896368 0.341041 6.56046e-22)
(0.909554 0.351952 6.64425e-22)
(0.924219 0.361883 -1.09578e-21)
(0.939904 0.370174 1.15053e-22)
(0.957033 0.377237 -4.34368e-22)
(0.975259 0.382506 -7.9458e-22)
(0.993781 0.385481 3.21371e-21)
(1.01274 0.38642 -5.56406e-22)
(1.03229 0.385436 -5.03881e-21)
(1.05122 0.382208 9.4854e-21)
(1.06908 0.376938 -6.48123e-21)
(1.08635 0.369919 9.2621e-21)
(1.1029 0.361258 -1.79076e-21)
(1.11808 0.351219 -3.1779e-20)
(1.13153 0.340181 2.23735e-20)
(1.14357 0.328299 -4.3677e-21)
(1.15442 0.315664 0)
(1.16403 0.30244 9.41743e-21)
(1.17213 0.289075 -1.43282e-20)
(1.17877 0.275828 -1.48255e-20)
(1.18429 0.262594 2.03433e-20)
(1.18881 0.249368 -1.57743e-20)
(1.19239 0.236229 2.44815e-20)
(1.19505 0.223349 2.89466e-21)
(1.19683 0.211006 2.94224e-21)
(1.19788 0.199111 -2.76901e-21)
(1.19831 0.187479 0)
(1.19818 0.176127 -2.86967e-21)
(1.19753 0.165067 3.10403e-21)
(1.1964 0.154401 7.57148e-21)
(1.19487 0.144239 -1.07184e-20)
(1.193 0.134465 7.55524e-21)
(1.1908 0.124961 -6.94401e-21)
(1.18827 0.115754 0)
(1.18546 0.10687 -1.55815e-21)
(1.18239 0.0983401 1.64265e-21)
(0.867758 0.278895 0)
(0.876498 0.289602 -2.03588e-21)
(0.88546 0.299969 -1.75793e-21)
(0.894896 0.310404 -8.11774e-22)
(0.905152 0.320279 -6.94039e-22)
(0.916363 0.32975 0)
(0.92877 0.338503 2.12415e-22)
(0.942047 0.345999 -2.51861e-22)
(0.956555 0.352613 -1.49229e-22)
(0.972073 0.357862 -3.52356e-22)
(0.987998 0.361277 -6.71439e-22)
(1.00446 0.363067 4.52286e-21)
(1.02159 0.363324 2.28987e-21)
(1.03846 0.361644 1.72601e-21)
(1.05463 0.358143 -1.70013e-21)
(1.07051 0.353078 3.49002e-22)
(1.08596 0.346507 4.88431e-21)
(1.10041 0.338569 0)
(1.11346 0.32954 -1.25983e-20)
(1.12539 0.319583 9.36795e-21)
(1.13634 0.308785 0)
(1.14624 0.297283 2.21817e-20)
(1.1548 0.285447 -1.91434e-20)
(1.16202 0.273522 3.81657e-21)
(1.16819 0.261452 1.68299e-20)
(1.17342 0.249258 -1.29687e-20)
(1.17774 0.23702 0)
(1.18115 0.224907 0)
(1.18367 0.213184 -4.50402e-21)
(1.18542 0.201794 2.47687e-21)
(1.18655 0.190586 9.73459e-21)
(1.18708 0.179588 -7.33621e-21)
(1.18706 0.168818 0)
(1.18654 0.15838 1.63591e-22)
(1.18556 0.148386 -8.92865e-21)
(1.1842 0.138735 5.09003e-21)
(1.18248 0.129324 0)
(1.1804 0.12018 -2.60187e-21)
(1.17801 0.111332 1.66097e-21)
(1.17532 0.102813 -1.68546e-22)
(0.880123 0.266975 5.99862e-22)
(0.887907 0.276235 5.34234e-22)
(0.895852 0.285197 7.68927e-22)
(0.904161 0.294215 9.42498e-23)
(0.913121 0.302774 4.33275e-23)
(0.922846 0.311023 0)
(0.933548 0.318721 -1.5576e-22)
(0.944982 0.325425 -2.35879e-22)
(0.957453 0.331476 -7.91613e-23)
(0.970821 0.336467 -2.8839e-22)
(0.984623 0.339979 -5.66683e-22)
(0.998977 0.34219 -3.54316e-21)
(1.01402 0.343178 -2.93774e-21)
(1.02901 0.34252 2.09443e-21)
(1.04357 0.34027 1.53429e-21)
(1.05802 0.336653 -5.18909e-21)
(1.07227 0.33169 1.54021e-21)
(1.0858 0.325435 -3.96748e-21)
(1.09823 0.318079 1.88683e-21)
(1.10978 0.309774 -1.25345e-20)
(1.12055 0.300599 1.06432e-20)
(1.13045 0.290664 -1.23142e-20)
(1.13919 0.280262 1.21658e-20)
(1.14672 0.269615 -1.66739e-20)
(1.1533 0.258707 1.66811e-20)
(1.15901 0.247566 -1.80883e-20)
(1.16388 0.236274 -2.79735e-22)
(1.16788 0.22499 1.86881e-20)
(1.17098 0.213961 -3.76802e-21)
(1.17333 0.203158 7.93126e-21)
(1.17504 0.192459 -3.93947e-21)
(1.17616 0.181898 0)
(1.1767 0.171503 0)
(1.17671 0.161374 2.23199e-21)
(1.17625 0.151625 -4.21033e-21)
(1.17537 0.142172 -1.11568e-21)
(1.1741 0.132923 2.25796e-23)
(1.17245 0.123908 4.47544e-21)
(1.17045 0.115159 5.78382e-22)
(1.16814 0.106707 1.51762e-22)
(0.890772 0.256563 -1.88011e-22)
(0.897783 0.26465 7.43579e-22)
(0.904917 0.272469 -5.8799e-22)
(0.91234 0.280328 -5.2627e-22)
(0.920291 0.287799 -5.42217e-22)
(0.928865 0.295018 3.82211e-22)
(0.938244 0.301794 -1.16774e-22)
(0.94824 0.307765 1.8895e-23)
(0.95911 0.313233 -1.1198e-22)
(0.97076 0.31786 1.14933e-21)
(0.982834 0.32128 -1.16979e-21)
(0.995435 0.323647 -2.18517e-21)
(1.0087 0.325032 -1.32944e-21)
(1.02203 0.325024 2.90147e-22)
(1.0351 0.32364 0)
(1.04821 0.321073 0)
(1.06125 0.317324 1.22537e-20)
(1.07378 0.312387 3.92991e-22)
(1.08548 0.30639 -4.68741e-22)
(1.09648 0.299468 4.34884e-21)
(1.10687 0.291685 9.13458e-21)
(1.11656 0.283128 -1.17757e-20)
(1.12526 0.274024 -5.53481e-21)
(1.13289 0.264568 -4.0238e-22)
(1.13968 0.254766 -3.32007e-21)
(1.1457 0.244653 1.16049e-20)
(1.15093 0.234305 0)
(1.15534 0.223869 -2.65827e-22)
(1.1589 0.21357 0)
(1.16172 0.203399 -3.23372e-21)
(1.16392 0.193263 3.5826e-21)
(1.16552 0.183199 -7.08343e-21)
(1.16655 0.173239 1.06928e-20)
(1.16703 0.163482 -9.13588e-21)
(1.16702 0.15404 1.11667e-20)
(1.16658 0.144845 -3.74959e-21)
(1.16572 0.135816 9.3446e-22)
(1.16447 0.126987 3.84054e-21)
(1.16286 0.11839 -9.62738e-22)
(1.1609 0.110055 8.91326e-22)
(0.90003 0.247368 -3.11306e-22)
(0.906401 0.254487 -3.18443e-22)
(0.912872 0.261363 -4.4953e-22)
(0.919578 0.268264 9.72872e-22)
(0.926719 0.274827 2.24529e-21)
(0.934378 0.281176 -1.0906e-21)
(0.942708 0.287158 0)
(0.951559 0.29247 1.55345e-22)
(0.96115 0.297382 1.35309e-22)
(0.971415 0.30161 0)
(0.982074 0.304841 5.24032e-22)
(0.993219 0.307207 1.69599e-21)
(1.00498 0.308776 2.7114e-21)
(1.01687 0.309164 -1.03369e-21)
(1.02862 0.308367 -2.12666e-21)
(1.04048 0.306552 5.76966e-21)
(1.05237 0.303706 2.49419e-21)
(1.06392 0.299787 -1.05893e-20)
(1.07482 0.294875 -3.61355e-22)
(1.08519 0.289088 -3.1494e-21)
(1.09508 0.282476 7.48747e-21)
(1.10442 0.275106 -3.859e-21)
(1.11293 0.267147 -4.42701e-21)
(1.12051 0.258769 9.0523e-21)
(1.12735 0.249991 -1.3661e-20)
(1.1335 0.240846 0)
(1.13894 0.231407 1.04061e-20)
(1.14363 0.221803 -1.33313e-20)
(1.14751 0.212238 0)
(1.15069 0.20272 2.9601e-21)
(1.15326 0.193175 -5.88578e-21)
(1.15526 0.183641 5.9901e-21)
(1.15669 0.174156 -3.19663e-21)
(1.15758 0.164814 1.63074e-21)
(1.15797 0.155725 -1.04758e-22)
(1.15791 0.146833 -4.79603e-21)
(1.15743 0.138071 2.42849e-21)
(1.15655 0.129474 1.65055e-21)
(1.15528 0.121073 -2.50657e-21)
(1.15366 0.1129 1.09015e-21)
(0.908142 0.239172 -2.85225e-22)
(0.913974 0.245483 -7.47227e-22)
(0.91989 0.25157 1.40927e-21)
(0.926002 0.257668 -7.88644e-22)
(0.93248 0.263468 -6.45534e-22)
(0.939393 0.269079 8.7867e-22)
(0.946872 0.274377 -6.23643e-22)
(0.954794 0.279107 -5.75502e-23)
(0.963346 0.283507 -4.59661e-23)
(0.972481 0.287342 -6.73686e-22)
(0.981971 0.290338 1.97252e-22)
(0.991903 0.292614 -7.23005e-22)
(1.00239 0.294234 2.16922e-21)
(1.01304 0.294848 4.69011e-22)
(1.02363 0.294442 -2.76613e-21)
(1.03437 0.293158 1.79539e-21)
(1.0452 0.290977 2.32533e-21)
(1.05581 0.287838 -1.82851e-21)
(1.06591 0.283785 -2.63518e-21)
(1.07561 0.27892 2.90142e-21)
(1.08495 0.273281 -2.85558e-21)
(1.09385 0.266916 -3.4277e-21)
(1.10206 0.259952 -7.15939e-21)
(1.10946 0.252529 1.07949e-20)
(1.11623 0.244676 4.12308e-21)
(1.12239 0.236424 -3.9716e-21)
(1.12792 0.227836 8.79991e-21)
(1.13276 0.219027 -8.91759e-21)
(1.13686 0.210179 0)
(1.14029 0.201309 -9.76429e-21)
(1.14315 0.19236 9.93221e-21)
(1.14545 0.183371 -5.1808e-21)
(1.14721 0.174382 7.82717e-21)
(1.14844 0.165481 8.05493e-21)
(1.14916 0.156775 -6.93131e-21)
(1.14943 0.148221 1.44423e-21)
(1.14928 0.139761 0)
(1.14872 0.13143 -2.86445e-21)
(1.14777 0.123261 2.55249e-21)
(1.14646 0.115285 -5.12019e-23)
(0.915299 0.23181 5.26396e-22)
(0.92067 0.237437 4.08259e-22)
(0.926113 0.242858 3.22661e-22)
(0.931724 0.248277 0)
(0.937646 0.253429 0)
(0.94394 0.25841 0)
(0.950714 0.263118 -2.02502e-22)
(0.95787 0.267336 3.39201e-22)
(0.965564 0.271276 0)
(0.973763 0.274737 1.72008e-22)
(0.982281 0.277485 0)
(0.991193 0.279625 -1.27288e-21)
(1.0006 0.281215 2.07709e-21)
(1.01019 0.281945 -9.04708e-22)
(1.01977 0.281791 -1.23792e-21)
(1.02951 0.280879 0)
(1.03938 0.279187 -3.59424e-21)
(1.0491 0.276642 3.46584e-21)
(1.05844 0.273265 4.3074e-21)
(1.06747 0.269143 -4.36352e-21)
(1.07624 0.264306 5.03423e-21)
(1.08466 0.258784 2.59668e-21)
(1.09249 0.252672 -6.02458e-21)
(1.09965 0.246087 5.80644e-21)
(1.10625 0.239058 -9.95461e-21)
(1.11233 0.231614 4.25399e-23)
(1.11784 0.223809 1.07931e-20)
(1.12275 0.215744 7.80375e-21)
(1.12696 0.207578 -1.98978e-20)
(1.13055 0.199336 1.65938e-20)
(1.13361 0.190973 2.21324e-21)
(1.13614 0.182528 -6.66776e-21)
(1.13816 0.17404 -2.36823e-21)
(1.13965 0.165593 -2.42745e-21)
(1.14065 0.157289 0)
(1.1412 0.149093 1.17578e-21)
(1.14134 0.140959 1.19485e-21)
(1.14106 0.13292 0)
(1.1404 0.125011 6.3318e-22)
(1.13936 0.11726 -4.20469e-23)
(0.921652 0.225153 3.2442e-22)
(0.926622 0.230195 9.22263e-22)
(0.931657 0.235047 -6.89553e-22)
(0.936838 0.239886 -5.33541e-22)
(0.942287 0.244484 0)
(0.948055 0.248924 0)
(0.954238 0.253122 0)
(0.960749 0.256891 0)
(0.967725 0.26042 -1.5777e-22)
(0.975139 0.263536 -1.43101e-22)
(0.982838 0.266038 0)
(0.990888 0.26802 -1.05997e-21)
(0.999379 0.269536 1.07038e-21)
(1.00805 0.270308 2.60154e-21)
(1.01674 0.270312 -3.87946e-21)
(1.0256 0.269657 2.13684e-21)
(1.03461 0.268322 -1.42123e-21)
(1.04352 0.266229 1.46802e-21)
(1.05215 0.263384 -3.62203e-21)
(1.06053 0.25986 1.83575e-21)
(1.06872 0.255679 -2.22385e-21)
(1.07664 0.250862 -2.41561e-21)
(1.08408 0.245475 0)
(1.09093 0.239616 -5.33279e-21)
(1.09731 0.233313 2.95897e-21)
(1.10323 0.226592 3.13174e-21)
(1.10866 0.219498 -2.61138e-22)
(1.11355 0.212118 3.1794e-21)
(1.1178 0.204592 6.91528e-21)
(1.12148 0.196947 -3.44949e-21)
(1.12467 0.189148 -1.92815e-21)
(1.12736 0.181235 -1.38179e-22)
(1.12956 0.173242 7.95574e-21)
(1.13126 0.165251 -8.09137e-21)
(1.13248 0.157355 0)
(1.13326 0.14953 -2.11875e-21)
(1.13364 0.141736 -1.11136e-21)
(1.13361 0.134007 0)
(1.13319 0.126376 -2.85479e-22)
(1.1324 0.118872 0)
(0.92732 0.219098 -1.30508e-22)
(0.931938 0.223637 -9.88215e-22)
(0.936616 0.227997 -2.22484e-22)
(0.941423 0.232338 1.02866e-21)
(0.946462 0.236457 0)
(0.95178 0.24043 -7.95469e-22)
(0.957457 0.244185 5.11796e-22)
(0.96342 0.24756 -9.74591e-23)
(0.969786 0.250722 9.79774e-23)
(0.976534 0.253525 1.336e-22)
(0.983535 0.255793 0)
(0.990847 0.257611 0)
(0.998552 0.259026 0)
(1.00643 0.259795 -1.28687e-21)
(1.01434 0.259892 1.78324e-21)
(1.02243 0.259414 -1.80736e-21)
(1.03066 0.258339 0)
(1.03885 0.25659 -3.86789e-21)
(1.0468 0.254163 -6.15031e-21)
(1.05458 0.25112 1.47311e-20)
(1.06222 0.247477 -6.89429e-21)
(1.06964 0.243247 0)
(1.07666 0.238475 0)
(1.08318 0.233242 2.37874e-21)
(1.0893 0.227575 7.27725e-21)
(1.09502 0.221495 -5.02675e-21)
(1.10031 0.21504 7.85636e-23)
(1.10511 0.208285 -1.15998e-20)
(1.10935 0.20135 8.79952e-21)
(1.11305 0.194265 9.38882e-23)
(1.11631 0.187003 0)
(1.1191 0.179599 -1.73066e-21)
(1.12143 0.172088 1.66505e-21)
(1.12328 0.164544 1.84657e-21)
(1.12468 0.157056 3.04147e-23)
(1.12565 0.149605 -2.73017e-21)
(1.12622 0.142159 1.88639e-21)
(1.1264 0.13475 -3.82671e-21)
(1.12619 0.12741 2.41285e-21)
(1.12562 0.120168 0)
(0.9324 0.213563 -3.46082e-23)
(0.936707 0.217664 -3.03046e-22)
(0.941068 0.221599 0)
(0.945545 0.225507 4.01845e-22)
(0.950227 0.22921 0)
(0.955153 0.232777 1.2156e-21)
(0.960392 0.236144 -1.77269e-22)
(0.965882 0.239173 -1.82682e-22)
(0.971723 0.242011 7.21131e-23)
(0.977899 0.24453 0)
(0.9843 0.24658 -4.15898e-22)
(0.990977 0.248234 -7.69738e-22)
(0.998003 0.249538 9.34948e-22)
(1.00519 0.250276 1.62016e-21)
(1.01242 0.250422 -2.56596e-21)
(1.01982 0.250062 0)
(1.02737 0.249176 0)
(1.03489 0.24769 2.04874e-22)
(1.04224 0.245593 5.26748e-21)
(1.04945 0.242938 -5.32854e-21)
(1.05655 0.239736 -3.4426e-21)
(1.06349 0.235995 -3.70628e-21)
(1.0701 0.231744 3.55177e-21)
(1.07628 0.22705 0)
(1.08211 0.221937 6.3653e-21)
(1.0876 0.216423 -1.77376e-20)
(1.09272 0.210539 1.1639e-20)
(1.0974 0.204348 -9.95865e-21)
(1.10156 0.197956 5.08992e-21)
(1.10525 0.191391 -1.99731e-22)
(1.10852 0.184633 5.65938e-21)
(1.11136 0.177713 -1.16229e-20)
(1.11377 0.170664 4.40407e-21)
(1.11573 0.163554 -6.13276e-21)
(1.11725 0.156466 4.79961e-21)
(1.11837 0.149387 -3.25934e-21)
(1.1191 0.142289 3.30066e-21)
(1.11945 0.135203 2.5028e-21)
(1.11942 0.128162 -2.56523e-21)
(1.11903 0.121192 0)
(0.936973 0.20848 0)
(0.941 0.212199 0)
(0.945079 0.215761 -1.55355e-23)
(0.949263 0.219291 -4.5014e-22)
(0.953629 0.222632 4.80715e-22)
(0.958209 0.225843 -1.81744e-21)
(0.963065 0.228872 9.02296e-23)
(0.968142 0.231595 -1.59359e-22)
(0.973527 0.234144 1.26985e-22)
(0.979207 0.236408 -2.88561e-22)
(0.985086 0.238257 5.00394e-22)
(0.991212 0.239755 7.47532e-23)
(0.997645 0.240944 -9.48388e-22)
(1.00423 0.241633 6.29117e-22)
(1.01086 0.241798 3.69015e-21)
(1.01766 0.241516 -2.66953e-21)
(1.02458 0.240766 -1.96648e-21)
(1.03151 0.239482 7.48891e-21)
(1.0383 0.237647 6.62907e-21)
(1.04499 0.235306 -9.62683e-21)
(1.0516 0.232467 7.84392e-21)
(1.05808 0.229134 -5.34462e-21)
(1.06428 0.225325 3.29541e-21)
(1.07011 0.221094 -3.25997e-21)
(1.07565 0.216464 3.48555e-21)
(1.08089 0.211448 0)
(1.0858 0.206072 0)
(1.09033 0.20039 2.23484e-21)
(1.09439 0.194492 0)
(1.09802 0.188407 -2.44203e-21)
(1.10127 0.182117 0)
(1.10412 0.175652 7.60176e-21)
(1.10657 0.169042 -2.67311e-21)
(1.1086 0.162349 1.41066e-21)
(1.11021 0.155649 1.45278e-21)
(1.11144 0.148934 0)
(1.11229 0.14218 0)
(1.11278 0.135418 -7.67834e-22)
(1.11289 0.128677 1.14528e-21)
(1.11266 0.121985 -7.63685e-22)
(0.941103 0.203796 2.41196e-22)
(0.944879 0.207177 0)
(0.948704 0.210412 4.61377e-23)
(0.952625 0.21361 3.48034e-22)
(0.956707 0.216632 -1.23072e-21)
(0.960981 0.219531 1.57873e-21)
(0.965499 0.22226 -3.0442e-22)
(0.970211 0.224713 0)
(0.975196 0.227006 -1.36991e-23)
(0.980441 0.229042 1.76798e-22)
(0.985864 0.230706 3.4662e-22)
(0.991505 0.232057 -3.71819e-23)
(0.99742 0.233132 -8.83822e-22)
(1.00347 0.233763 1.56002e-21)
(1.00958 0.233928 1.10505e-21)
(1.01583 0.233695 0)
(1.02221 0.233045 -1.52495e-21)
(1.0286 0.231915 -3.67379e-21)
(1.03488 0.230288 -2.34619e-21)
(1.04109 0.228203 6.35339e-21)
(1.04723 0.225664 -4.43027e-21)
(1.05328 0.222673 2.63434e-21)
(1.05909 0.219239 0)
(1.06458 0.215407 3.07606e-21)
(1.06983 0.211197 -3.28807e-21)
(1.07481 0.206619 0)
(1.0795 0.201694 3.43803e-21)
(1.08386 0.196469 7.64307e-21)
(1.08779 0.19102 -1.19614e-20)
(1.09133 0.185375 8.1196e-21)
(1.09453 0.179519 4.34958e-21)
(1.09736 0.173479 -6.74399e-21)
(1.09981 0.167283 -2.40407e-21)
(1.10188 0.160987 -2.32298e-21)
(1.10355 0.15466 0)
(1.10485 0.148298 0)
(1.1058 0.141881 0)
(1.10639 0.135437 6.3774e-22)
(1.10663 0.128996 -6.6896e-22)
(1.10653 0.122583 6.52033e-22)
(0.944846 0.199463 -3.85228e-22)
(0.948394 0.202546 3.69771e-22)
(0.951989 0.205491 -3.2086e-22)
(0.955672 0.208396 -2.52549e-22)
(0.9595 0.211136 7.31175e-22)
(0.963499 0.213759 -6.90945e-22)
(0.967714 0.216225 2.36932e-23)
(0.972103 0.218437 -9.96149e-23)
(0.976733 0.220501 1.09191e-22)
(0.981594 0.222332 -5.41131e-22)
(0.986613 0.223828 -2.82912e-22)
(0.991827 0.225043 -3.23861e-22)
(0.997284 0.226009 1.00174e-21)
(1.00287 0.226578 -1.68928e-21)
(1.0085 0.22673 8.03627e-22)
(1.01427 0.226525 2.36781e-21)
(1.02016 0.225946 -2.38919e-21)
(1.02607 0.224936 1.56778e-21)
(1.03188 0.223477 3.31296e-22)
(1.03765 0.221601 -1.58539e-21)
(1.04336 0.219312 0)
(1.049 0.216608 0)
(1.05444 0.213494 0)
(1.05961 0.210006 5.3116e-21)
(1.06456 0.206162 -5.37823e-21)
(1.06928 0.201969 0)
(1.07375 0.197446 -3.25061e-21)
(1.07792 0.192629 6.71603e-21)
(1.08171 0.187588 -1.04231e-20)
(1.08515 0.182344 0)
(1.08826 0.176889 3.83358e-21)
(1.09104 0.171244 -1.98902e-21)
(1.09348 0.165436 -4.1306e-21)
(1.09555 0.159515 6.39596e-21)
(1.09725 0.153545 -2.28379e-21)
(1.0986 0.147523 5.53771e-21)
(1.09962 0.141432 0)
(1.10029 0.135301 -3.69609e-23)
(1.10063 0.129155 2.87891e-22)
(1.10064 0.123019 -1.68746e-23)
(0.948248 0.195443 2.03618e-22)
(0.951588 0.198261 -2.70116e-23)
(0.954973 0.200948 3.07225e-22)
(0.958439 0.203593 4.74317e-22)
(0.962036 0.206083 0)
(0.965787 0.208462 5.61725e-22)
(0.969731 0.210692 -1.83465e-22)
(0.97383 0.212692 2.37789e-22)
(0.978143 0.214552 -4.58642e-23)
(0.982661 0.216198 4.11149e-22)
(0.987321 0.217543 -4.14324e-22)
(0.992155 0.218631 -9.51e-22)
(0.997206 0.219495 1.06801e-21)
(1.00237 0.220001 -2.71531e-21)
(1.00758 0.220131 5.75157e-22)
(1.01292 0.21994 1.80182e-21)
(1.01837 0.219413 -1.08824e-21)
(1.02384 0.218496 -1.24436e-21)
(1.02924 0.217172 3.04309e-21)
(1.03459 0.215468 -1.51921e-21)
(1.03991 0.213388 1.71486e-21)
(1.04517 0.210927 0)
(1.05026 0.208087 0)
(1.05512 0.204897 0)
(1.05978 0.201373 4.99173e-21)
(1.06425 0.19752 -2.25528e-21)
(1.06849 0.193353 -5.38318e-21)
(1.07247 0.188903 -2.81054e-21)
(1.0761 0.184229 -6.22217e-21)
(1.07941 0.179354 9.40199e-21)
(1.08244 0.174266 6.77961e-21)
(1.08515 0.168988 -1.05394e-20)
(1.08754 0.163542 5.34013e-21)
(1.0896 0.157974 0)
(1.09131 0.152343 1.89896e-21)
(1.09269 0.146646 -6.97957e-21)
(1.09375 0.14087 1.03653e-21)
(1.09448 0.135042 -1.03855e-21)
(1.09489 0.129185 -1.05705e-21)
(1.09499 0.123323 5.90975e-22)
(0.951347 0.191704 -3.3445e-22)
(0.954496 0.194284 -2.35309e-23)
(0.95769 0.196742 5.01371e-22)
(0.960958 0.199154 -8.45943e-22)
(0.964344 0.201422 3.93714e-22)
(0.96787 0.203582 0)
(0.971568 0.205604 0)
(0.975405 0.207413 0)
(0.979434 0.20909 2.40968e-23)
(0.983645 0.210572 -2.4451e-22)
(0.987983 0.211778 9.78188e-22)
(0.992476 0.212751 -4.8946e-22)
(0.997163 0.213519 -1.41811e-21)
(1.00195 0.213963 1.08874e-21)
(1.00679 0.214068 1.58588e-21)
(1.01174 0.213882 -1.60041e-21)
(1.01679 0.213391 1.03714e-21)
(1.02186 0.212547 1.18539e-21)
(1.02688 0.211333 2.47819e-21)
(1.03186 0.209772 1.49473e-21)
(1.03682 0.207868 -4.64068e-21)
(1.04172 0.205614 3.55489e-21)
(1.04649 0.20301 -1.80037e-21)
(1.05104 0.200079 -4.13024e-21)
(1.05543 0.196836 1.06697e-20)
(1.05965 0.193283 -2.08956e-21)
(1.06367 0.189433 2.35469e-21)
(1.06745 0.185312 2.66989e-21)
(1.07092 0.180971 5.51108e-21)
(1.0741 0.17643 -2.08574e-23)
(1.07702 0.17168 -2.97667e-21)
(1.07965 0.166741 -1.60361e-21)
(1.08198 0.161633 -1.66599e-21)
(1.08401 0.156397 0)
(1.0857 0.151085 -3.47637e-21)
(1.08709 0.145698 -4.3017e-23)
(1.08818 0.140225 2.71851e-21)
(1.08895 0.134688 4.16924e-21)
(1.08942 0.129112 -2.3467e-21)
(1.08958 0.123519 9.01055e-22)
(0.954178 0.188217 7.63548e-22)
(0.957152 0.190584 -4.21981e-22)
(0.960168 0.192836 -6.93898e-22)
(0.963254 0.19504 2.11033e-22)
(0.966448 0.197109 0)
(0.969767 0.199074 0)
(0.973242 0.200909 0)
(0.976841 0.202547 5.48989e-23)
(0.980612 0.204061 -1.53132e-22)
(0.984546 0.205394 2.81719e-23)
(0.988594 0.206476 0)
(0.992781 0.207343 1.08298e-21)
(0.997141 0.208022 -6.20154e-22)
(1.00159 0.208407 -9.77002e-22)
(1.00609 0.208485 1.41643e-21)
(1.01069 0.208297 -4.57256e-21)
(1.01538 0.207831 1.66458e-21)
(1.02009 0.207045 -1.96359e-21)
(1.02476 0.205922 -2.36473e-21)
(1.02939 0.204481 -2.64045e-21)
(1.03402 0.202726 2.67037e-21)
(1.0386 0.20065 0)
(1.04305 0.19825 -1.71691e-21)
(1.04733 0.195545 -3.6639e-21)
(1.05146 0.192548 1.72815e-21)
(1.05544 0.189262 0)
(1.05924 0.185694 -2.24187e-21)
(1.06282 0.181869 -2.20996e-21)
(1.06613 0.177829 0)
(1.06917 0.173594 -2.61338e-21)
(1.07197 0.169154 -8.08164e-21)
(1.07451 0.164529 8.33946e-21)
(1.07677 0.159734 -5.77938e-21)
(1.07875 0.154808 1.50185e-21)
(1.08042 0.149798 0)
(1.0818 0.144706 -3.17695e-21)
(1.0829 0.139521 3.21221e-21)
(1.0837 0.134265 0)
(1.0842 0.128961 -2.16989e-22)
(1.08442 0.123628 0)
(0.956769 0.184957 -6.24905e-22)
(0.959581 0.187134 -2.21749e-22)
(0.962433 0.189199 2.21846e-22)
(0.965351 0.191217 0)
(0.968367 0.193107 0)
(0.971497 0.194898 -1.62104e-22)
(0.974767 0.196565 -9.90769e-24)
(0.97815 0.19805 1.20952e-22)
(0.981686 0.199417 6.55435e-23)
(0.985369 0.200616 3.19892e-22)
(0.989154 0.201585 -3.21821e-22)
(0.993063 0.202357 0)
(0.997127 0.202953 -7.27691e-23)
(1.00127 0.203283 1.82977e-21)
(1.00546 0.203332 1.27057e-21)
(1.00974 0.203138 1.47129e-22)
(1.0141 0.202691 0)