/*--------------------------------*- C++ -*----------------------------------*\
| =========                 |                                                 |
| \\      /  F ield         | OpenFOAM: The Open Source CFD Toolbox           |
|  \\    /   O peration     | Version:  3.0.1                                 |
|   \\  /    A nd           | Web:      www.OpenFOAM.org                      |
|    \\/     M anipulation  |                                                 |
\*---------------------------------------------------------------------------*/
FoamFile
{
    version     2.0;
    format      ascii;
    class       volScalarField;
    location    "150";
    object      nut;
}
// * * * * * * * * * * * * * * * * * * * * * * * * * * * * * * * * * * * * * //

dimensions      [0 2 -1 0 0 0 0];

internalField   nonuniform List<scalar> 
58000
(
0.00091312
0.000785397
0.00065673
0.00058091
0.000534812
0.000500505
0.000477442
0.000457531
0.000444393
0.000436208
0.000429867
0.00042605
0.000424696
0.000423453
0.000422607
0.000422787
0.000423974
0.000425714
0.000427741
0.000430164
0.000433069
0.000436181
0.000439479
0.000442724
0.000446218
0.000449531
0.000452841
0.000456097
0.000459135
0.000462177
0.000464892
0.000467359
0.000469495
0.000471244
0.000472686
0.00047333
0.000472826
0.000471859
0.000470748
0.000471863
0.00364245
0.00323141
0.00279057
0.00238986
0.00206724
0.00181239
0.00162011
0.0014684
0.00135348
0.00126853
0.00120192
0.00115231
0.00111586
0.00108521
0.00105609
0.00103334
0.00101681
0.00100263
0.00098959
0.000979706
0.000973511
0.000968692
0.00096457
0.000960876
0.000959638
0.000958716
0.000957827
0.000956942
0.000955914
0.000956004
0.000956215
0.000954437
0.00095095
0.000946259
0.000941017
0.000933736
0.000925401
0.000917344
0.00091059
0.000911254
0.00658101
0.00606107
0.00547059
0.00485686
0.00430579
0.00383651
0.00346771
0.00316749
0.00292721
0.00274166
0.00259271
0.00247048
0.00237925
0.002307
0.00224456
0.0021963
0.00216094
0.00213234
0.0021077
0.00208938
0.00207752
0.00206821
0.00205989
0.00205213
0.00204806
0.00204331
0.00203704
0.0020298
0.00202183
0.00201641
0.00201113
0.00200552
0.00199954
0.00199264
0.00198442
0.00197281
0.00195864
0.00194437
0.00193264
0.00193112
0.00962409
0.0090306
0.00832814
0.00759423
0.00689666
0.00625324
0.00571492
0.00525835
0.00488203
0.00458507
0.00433757
0.0041328
0.00397592
0.00384947
0.00374095
0.00365618
0.00359211
0.00353928
0.00349358
0.00345821
0.00343312
0.00341256
0.00339192
0.00337145
0.00335786
0.00334665
0.00333542
0.00332395
0.00331179
0.00330226
0.00329223
0.00328083
0.00326829
0.00325492
0.00324189
0.00322501
0.00320468
0.00318388
0.00316612
0.00315813
0.0127001
0.0120616
0.0112944
0.0104806
0.00967842
0.00892035
0.00825364
0.00766198
0.00715467
0.00674186
0.00638974
0.00609248
0.00585972
0.00566896
0.00550364
0.00537217
0.00527059
0.00518565
0.00511115
0.00505139
0.00500523
0.00496592
0.00493021
0.00489698
0.00487447
0.00485421
0.00483337
0.00481216
0.00479089
0.00477604
0.00476048
0.00474289
0.00472349
0.00470289
0.00468366
0.00466039
0.00463305
0.00460493
0.00457986
0.00456298
0.0157764
0.0151087
0.0143029
0.0134358
0.0125702
0.0117286
0.0109677
0.0102745
0.0096579
0.00914008
0.00868778
0.00829721
0.00798423
0.00772363
0.00749532
0.00730983
0.00716313
0.00703917
0.00692813
0.00683659
0.0067658
0.00670549
0.00665186
0.00660056
0.00656154
0.0065285
0.0064968
0.00646612
0.00643474
0.00640963
0.0063863
0.00636256
0.00633617
0.00630802
0.00628172
0.00625134
0.00621646
0.00618048
0.0061471
0.00611966
0.0188341
0.0181479
0.017321
0.0164233
0.0155181
0.0146198
0.0137918
0.0130167
0.0123147
0.0117105
0.0111708
0.0106923
0.0103005
0.00996892
0.00967627
0.00943283
0.00923573
0.00906566
0.00891442
0.00878909
0.00869127
0.00860534
0.00852648
0.00845444
0.00839979
0.0083521
0.00830625
0.0082617
0.00821933
0.0081844
0.00815189
0.00811974
0.00808478
0.00804813
0.00801398
0.007976
0.00793333
0.00788923
0.00784702
0.00780822
0.0218585
0.0211617
0.0203249
0.019412
0.0184844
0.0175508
0.0166747
0.0158429
0.0150741
0.0143949
0.0137785
0.0132259
0.0127629
0.0123633
0.0120037
0.011702
0.0114548
0.0112392
0.0110461
0.0108844
0.010753
0.0106389
0.0105348
0.0104403
0.0103646
0.0102997
0.0102394
0.0101805
0.0101237
0.0100782
0.0100357
0.00999361
0.00994921
0.00990367
0.00986136
0.00981571
0.0097653
0.00971321
0.00966221
0.00961219
0.0248384
0.0241366
0.0232977
0.02238
0.0214418
0.0204897
0.0195832
0.0187119
0.0178907
0.0171569
0.016479
0.0158596
0.0153321
0.0148702
0.0144498
0.0140922
0.0137966
0.0135351
0.0132984
0.0130966
0.0129314
0.0127886
0.012657
0.0125362
0.0124396
0.0123557
0.0122767
0.0122028
0.0121314
0.0120735
0.0120193
0.011965
0.0119115
0.0118574
0.0118071
0.0117539
0.0116962
0.0116366
0.0115775
0.0115174
0.0277644
0.0270623
0.026227
0.0253116
0.0243696
0.0234123
0.0224898
0.0215939
0.0207369
0.0199601
0.0192314
0.0185602
0.0179788
0.0174618
0.0169861
0.0165752
0.0162289
0.015922
0.0156435
0.0154049
0.0152053
0.0150301
0.0148713
0.0147243
0.0146031
0.0144997
0.0144021
0.0143109
0.0142237
0.0141521
0.0140859
0.0140204
0.0139571
0.0138943
0.013836
0.0137757
0.0137112
0.0136452
0.0135795
0.0135114
0.0306286
0.0299301
0.0291033
0.0281967
0.0272597
0.0263034
0.025374
0.0244638
0.0235842
0.022775
0.0220103
0.0212973
0.0206708
0.0201047
0.01958
0.0191217
0.0187304
0.018382
0.0180627
0.0177847
0.0175508
0.0173453
0.0171562
0.0169839
0.016839
0.0167129
0.0165966
0.016486
0.0163829
0.0162962
0.016219
0.0161429
0.0160702
0.0160003
0.0159337
0.0158666
0.0157965
0.0157258
0.0156557
0.0155831
0.0334246
0.0327326
0.0319178
0.0310248
0.0300987
0.0291497
0.0282203
0.0273023
0.0264124
0.025583
0.0247918
0.0240442
0.0233804
0.0227775
0.0222124
0.0217126
0.0212801
0.0208899
0.0205319
0.0202193
0.0199524
0.0197145
0.019497
0.0192965
0.0191287
0.0189811
0.0188454
0.0187161
0.0185947
0.0184947
0.0184056
0.0183179
0.0182361
0.0181583
0.0180852
0.0180131
0.0179393
0.0178662
0.017795
0.0177224
0.0361473
0.035464
0.0346639
0.0337877
0.0328769
0.0319406
0.0310181
0.030101
0.0292067
0.0283657
0.0275571
0.0267857
0.0260935
0.0254589
0.0248593
0.0243238
0.0238555
0.0234295
0.0230356
0.0226873
0.0223899
0.0221224
0.0218753
0.0216493
0.0214559
0.0212859
0.0211318
0.0209852
0.0208473
0.0207336
0.0206323
0.0205335
0.0204422
0.0203571
0.0202787
0.0202033
0.0201281
0.0200556
0.0199872
0.0199203
0.0387928
0.0381199
0.0373363
0.0364793
0.035587
0.0346673
0.0337566
0.0328466
0.0319542
0.031108
0.0302891
0.0295025
0.0287895
0.0281294
0.0274998
0.0269336
0.0264343
0.0259788
0.0255537
0.0251741
0.0248452
0.0245507
0.0242776
0.0240266
0.0238095
0.023617
0.0234418
0.0232792
0.0231261
0.0229987
0.0228857
0.0227764
0.0226754
0.0225848
0.022503
0.0224262
0.0223521
0.0222837
0.0222231
0.0221687
0.0413588
0.0406965
0.0399307
0.0390948
0.0382233
0.0373232
0.0364282
0.03553
0.0346445
0.0337987
0.0329736
0.0321801
0.0314534
0.0307732
0.030124
0.0295341
0.0290079
0.0285223
0.0280685
0.0276623
0.0273056
0.0269836
0.0266869
0.0264123
0.0261732
0.0259602
0.0257647
0.0255865
0.0254188
0.0252768
0.0251537
0.0250358
0.0249274
0.0248321
0.0247479
0.0246718
0.0246016
0.0245413
0.024494
0.0244599
0.0438378
0.0431897
0.0424437
0.0416305
0.0407817
0.0399036
0.0390271
0.0381443
0.0372704
0.0364302
0.035606
0.0348095
0.0340745
0.0333822
0.0327183
0.0321103
0.0315626
0.0310525
0.0305723
0.0301385
0.0297558
0.0294111
0.0290913
0.0287912
0.0285326
0.0283037
0.0280909
0.0278956
0.0277155
0.0275612
0.0274262
0.0273014
0.0271873
0.0270885
0.0270037
0.0269303
0.0268672
0.0268194
0.0267919
0.0267872
0.0462309
0.0455982
0.0448733
0.044084
0.0432594
0.0424048
0.0415491
0.0406847
0.0398257
0.0389954
0.0381769
0.0373818
0.0366415
0.035944
0.0352711
0.0346499
0.0340854
0.0335552
0.0330509
0.0325957
0.0321903
0.0318214
0.0314803
0.031162
0.030885
0.0306401
0.0304113
0.0302006
0.0300083
0.0298424
0.0296972
0.0295652
0.0294461
0.0293449
0.029261
0.0291927
0.0291401
0.0291098
0.0291092
0.0291441
0.0485384
0.0479218
0.0472187
0.0464543
0.0456548
0.0448249
0.0439916
0.0431475
0.0423062
0.0414891
0.0406803
0.0398913
0.0391517
0.0384517
0.0377737
0.0371435
0.0365662
0.0360205
0.0354976
0.0350217
0.0345988
0.0342103
0.033851
0.0335147
0.0332204
0.03296
0.0327162
0.0324915
0.0322876
0.0321111
0.0319567
0.0318182
0.0316948
0.0315924
0.0315112
0.0314506
0.0314123
0.0314049
0.0314389
0.0315245
0.0507606
0.0501607
0.0494797
0.0487408
0.0479675
0.0471628
0.0463528
0.0455307
0.0447089
0.0439076
0.0431118
0.0423324
0.0415976
0.0408987
0.0402191
0.0395834
0.0389967
0.0384398
0.037903
0.0374112
0.0369733
0.0365667
0.0361885
0.0358384
0.035529
0.0352541
0.0349967
0.0347595
0.034545
0.0343588
0.0341961
0.0340519
0.0339252
0.0338228
0.0337462
0.033696
0.033676
0.0336974
0.0337746
0.0339228
0.0528982
0.0523154
0.0516568
0.0509438
0.0501984
0.0494182
0.0486321
0.0478329
0.0470324
0.0462489
0.0454684
0.0447016
0.0439747
0.0432801
0.0426022
0.0419641
0.0413697
0.0408059
0.0402596
0.0397552
0.0393016
0.0388825
0.0384902
0.038127
0.0378034
0.0375135
0.0372452
0.036997
0.0367729
0.0365779
0.0364079
0.0362589
0.03613
0.0360287
0.0359587
0.035922
0.0359245
0.0359809
0.03611
0.0363336
0.0549529
0.0543874
0.0537509
0.053063
0.0523439
0.0515902
0.050829
0.0500538
0.0492757
0.0485117
0.0477487
0.0469966
0.0462801
0.0455925
0.0449193
0.0442826
0.0436855
0.0431149
0.0425626
0.042049
0.0415841
0.0411534
0.0407488
0.0403739
0.0400381
0.0397357
0.0394566
0.039198
0.0389646
0.0387619
0.0385857
0.0384329
0.0383026
0.0382026
0.0381422
0.0381222
0.0381515
0.0382491
0.0384393
0.0387514
0.0569267
0.0563786
0.0557641
0.0551009
0.0544074
0.0536802
0.0529444
0.0521939
0.051439
0.050696
0.0499523
0.0492165
0.0485127
0.0478338
0.0471674
0.0465351
0.0459409
0.0453679
0.044809
0.0442879
0.0438154
0.0433738
0.0429585
0.0425731
0.042227
0.0419141
0.0416254
0.0413571
0.0411136
0.0409053
0.0407243
0.0405687
0.0404385
0.0403426
0.0402927
0.0402916
0.0403515
0.0404964
0.040757
0.041171
0.0588221
0.0582915
0.0576989
0.0570602
0.0563914
0.0556903
0.05498
0.0542547
0.0535232
0.0528018
0.0520802
0.051361
0.0506727
0.0500028
0.0493445
0.0487178
0.0481266
0.047554
0.0469926
0.0464664
0.0459854
0.0455379
0.0451144
0.0447189
0.0443654
0.0440441
0.0437471
0.0434705
0.0432193
0.0430049
0.0428195
0.0426619
0.0425328
0.0424428
0.0424049
0.0424247
0.0425191
0.0427172
0.0430574
0.0435869
0.0606421
0.0601287
0.0595579
0.0589445
0.0582986
0.0576227
0.0569379
0.0562392
0.0555297
0.0548295
0.0541285
0.053428
0.0527553
0.0520977
0.0514496
0.0508301
0.0502431
0.0496726
0.0491115
0.048583
0.0480971
0.0476444
0.0472146
0.046812
0.0464515
0.0461226
0.0458183
0.0455346
0.0452767
0.0450569
0.0448674
0.0447084
0.0445816
0.0444998
0.044474
0.0445168
0.044649
0.0449063
0.0453353
0.0459937
0.0623897
0.0618934
0.0613435
0.0607529
0.0601307
0.0594798
0.0588196
0.0581456
0.0574597
0.0567811
0.0561008
0.0554197
0.0547634
0.0541197
0.0534832
0.0528722
0.0522906
0.0517235
0.0511644
0.0506358
0.0501475
0.0496911
0.0492567
0.0488487
0.0484823
0.0481469
0.0478362
0.0475462
0.0472825
0.0470578
0.0468648
0.0467047
0.0465803
0.0465061
0.0464948
0.0465629
0.0467367
0.0470588
0.0475852
0.0483856
0.0640684
0.063589
0.0630606
0.0624904
0.0618912
0.0612649
0.0606292
0.0599787
0.0593164
0.0586596
0.0580001
0.057339
0.0566998
0.0560712
0.0554471
0.0548453
0.0542697
0.0537067
0.0531512
0.0526241
0.052135
0.0516767
0.0512392
0.0508272
0.050456
0.050115
0.0497987
0.0495033
0.0492345
0.0490054
0.0488092
0.0486483
0.0485266
0.0484602
0.0484644
0.0485597
0.0487781
0.0491701
0.0498021
0.0507569
0.065682
0.0652188
0.0647093
0.0641601
0.0635836
0.0629815
0.0623711
0.0617426
0.0611032
0.0604685
0.0598297
0.0591888
0.0585671
0.0579557
0.0573437
0.0567512
0.0561819
0.0556222
0.0550722
0.0545481
0.0540596
0.0536005
0.0531612
0.0527464
0.0523713
0.0520255
0.0517044
0.0514043
0.0511311
0.0508981
0.050699
0.0505373
0.0504184
0.0503601
0.0503804
0.0505042
0.0507698
0.0512361
0.0519811
0.0531017
0.0672345
0.0667884
0.0662955
0.0657664
0.0652119
0.0646332
0.0640455
0.0634398
0.0628235
0.0622121
0.0615928
0.060973
0.060367
0.0597712
0.0591749
0.058592
0.0580298
0.0574749
0.0569296
0.0564088
0.0559217
0.0554628
0.0550226
0.0546061
0.054228
0.053878
0.0535523
0.0532485
0.0529717
0.0527351
0.0525332
0.0523709
0.0522546
0.0522043
0.052241
0.0523941
0.0527086
0.053253
0.0541174
0.055414
0.0687298
0.0682985
0.0678231
0.0673138
0.0667806
0.0662257
0.0656583
0.0650746
0.0644807
0.06389
0.0632909
0.0626907
0.062102
0.061521
0.060939
0.0603693
0.0598153
0.0592647
0.0587241
0.0582071
0.0577222
0.0572643
0.0568242
0.0564068
0.0560264
0.0556727
0.0553417
0.0550363
0.0547565
0.0545162
0.0543116
0.0541484
0.0540346
0.0539919
0.0540449
0.0542275
0.0545922
0.0552173
0.0562065
0.057688
0.0701733
0.0697559
0.0692974
0.0688072
0.0682943
0.0677602
0.0672135
0.0666514
0.0660806
0.0655087
0.064929
0.0643474
0.0637772
0.0632098
0.0626405
0.062081
0.0615348
0.0609913
0.0604568
0.0599445
0.0594625
0.0590064
0.0585672
0.0581496
0.0577676
0.0574112
0.0570768
0.0567685
0.0564855
0.0562419
0.0560344
0.0558699
0.0557581
0.0557226
0.0557913
0.0560033
0.0564185
0.0571261
0.0582442
0.059918
0.0715707
0.0711664
0.070724
0.0702524
0.0697596
0.0692435
0.0687164
0.0681749
0.0676244
0.0670719
0.0665125
0.0659472
0.065393
0.0648414
0.0642847
0.0637332
0.0631924
0.0626573
0.06213
0.0616231
0.0611448
0.0606911
0.0602533
0.0598362
0.0594533
0.0590948
0.0587576
0.0584464
0.0581603
0.0579131
0.0577024
0.0575361
0.0574255
0.0573965
0.0574801
0.0577206
0.0581861
0.058977
0.0602266
0.0620982
0.0729274
0.0725354
0.0721082
0.0716549
0.0711784
0.0706802
0.0701721
0.0696516
0.0691189
0.0685846
0.068043
0.0674945
0.0669548
0.0664159
0.0658707
0.0653297
0.0647953
0.0642673
0.063747
0.0632459
0.0627716
0.0623208
0.061885
0.0614689
0.0610854
0.0607253
0.0603858
0.0600718
0.0597825
0.0595315
0.0593171
0.0591481
0.0590376
0.0590144
0.0591118
0.0593795
0.059894
0.0607678
0.0621502
0.0642237
0.0742493
0.0738687
0.0734555
0.0730173
0.072557
0.0720762
0.071586
0.0710835
0.0705692
0.0700535
0.0695274
0.0689958
0.0684695
0.0679404
0.0674044
0.0668702
0.0663447
0.0658246
0.0653114
0.0648162
0.0643463
0.0638987
0.0634652
0.0630503
0.0626667
0.0623052
0.0619636
0.0616468
0.0613541
0.061099
0.0608804
0.060707
0.0605969
0.0605782
0.0606876
0.0609806
0.0615421
0.0624972
0.0640122
0.0662898
0.0755422
0.0751722
0.074773
0.0743473
0.0739019
0.0734378
0.0729651
0.0724778
0.0719813
0.0714802
0.0709706
0.0704519
0.0699376
0.06942
0.0688924
0.0683643
0.067846
0.0673333
0.0668272
0.0663379
0.0658725
0.0654282
0.0649972
0.0645838
0.0642
0.0638373
0.0634936
0.063174
0.0628779
0.0626185
0.0623953
0.0622179
0.0621063
0.0620902
0.0622094
0.0625249
0.0631305
0.0641643
0.0658102
0.0682924
0.0768123
0.0764512
0.0760633
0.0756504
0.0752194
0.0747713
0.0743122
0.0738396
0.0733578
0.0728709
0.0723749
0.0718698
0.0713657
0.0708561
0.0703334
0.0698139
0.0693034
0.068798
0.0682988
0.0678154
0.0673544
0.0669134
0.0664849
0.0660729
0.065689
0.0653251
0.0649793
0.0646567
0.0643568
0.0640927
0.0638645
0.0636827
0.0635682
0.0635526
0.063679
0.0640139
0.0646601
0.0657688
0.0675427
0.0702282
0.0780657
0.0777121
0.0773339
0.076933
0.0765158
0.0760798
0.0756342
0.0751764
0.0747068
0.0742335
0.0737484
0.0732517
0.0727551
0.0722506
0.0717364
0.071225
0.0707219
0.0702236
0.069731
0.0692533
0.0687965
0.0683587
0.0679324
0.0675217
0.0671376
0.0667723
0.0664241
0.0660982
0.0657941
0.0655249
0.0652912
0.065104
0.0649852
0.0649682
0.065099
0.0654498
0.0661321
0.0673111
0.0692087
0.0720947
0.0793087
0.0789612
0.0785911
0.0782015
0.0777941
0.07737
0.0769377
0.0764911
0.076034
0.0755706
0.0750933
0.0746057
0.0741149
0.073615
0.0731076
0.0726034
0.0721072
0.0716155
0.0711291
0.0706566
0.0702038
0.0697688
0.0693446
0.0689347
0.0685501
0.068183
0.0678321
0.0675023
0.0671934
0.0669185
0.0666787
0.0664851
0.0663606
0.06634
0.0664724
0.0668351
0.0675487
0.0687923
0.070808
0.0738904
0.0805474
0.0802043
0.0798402
0.0794587
0.079061
0.0786485
0.0782257
0.0777904
0.0773424
0.0768856
0.0764163
0.0759342
0.0754459
0.0749528
0.0744523
0.0739549
0.073465
0.0729793
0.0724986
0.0720308
0.0715816
0.0711489
0.0707261
0.0703167
0.0699309
0.0695616
0.0692075
0.0688733
0.0685583
0.0682777
0.068031
0.0678301
0.0676983
0.0676718
0.0678025
0.0681729
0.0689122
0.0702139
0.0723411
0.0756143
0.0817874
0.0814473
0.0810873
0.0807118
0.080323
0.0799183
0.0795053
0.0790779
0.0786356
0.0781852
0.0777207
0.0772406
0.0767581
0.076271
0.0757769
0.0752856
0.0748013
0.0743209
0.0738451
0.0733815
0.0729353
0.0725043
0.0720822
0.0716725
0.071285
0.0709129
0.070555
0.0702158
0.0698947
0.069607
0.0693524
0.0691429
0.0690022
0.0689676
0.0690933
0.0694666
0.0702257
0.0715784
0.0738093
0.0772668
0.0830338
0.0826954
0.0823378
0.0819659
0.0815825
0.0811856
0.0807794
0.0803573
0.0799214
0.0794731
0.0790104
0.0785356
0.0780582
0.0775763
0.0770877
0.0766016
0.076122
0.0756461
0.0751744
0.0747143
0.0742708
0.0738405
0.0734181
0.0730072
0.0726173
0.0722416
0.0718792
0.0715344
0.0712066
0.0709108
0.0706472
0.070428
0.0702771
0.0702318
0.0703487
0.0707203
0.0714928
0.0728886
0.0752146
0.0788487
0.0842911
0.0839534
0.0835968
0.0832265
0.0828458
0.0824529
0.0820514
0.0816356
0.0812042
0.0807572
0.080297
0.0798259
0.0793525
0.0788749
0.0783907
0.0779088
0.077433
0.0769605
0.076492
0.0760347
0.0755943
0.0751627
0.0747389
0.0743259
0.0739327
0.0735527
0.0731849
0.0728337
0.0724983
0.0721936
0.07192
0.0716898
0.0715283
0.0714686
0.0715732
0.071938
0.0727173
0.0741479
0.0765597
0.0803617
0.0855626
0.0852247
0.0848682
0.0844984
0.0841186
0.0837275
0.0833283
0.0829155
0.0824872
0.0820428
0.0815852
0.0811172
0.0806469
0.0801725
0.0796918
0.079213
0.0787399
0.0782698
0.0778034
0.0773475
0.0769076
0.0764751
0.0760493
0.0756336
0.0752362
0.0748511
0.074477
0.0741184
0.0737744
0.0734598
0.073175
0.0729323
0.0727569
0.0726817
0.0727708
0.0731242
0.0739038
0.0753604
0.077848
0.0818083
0.0868509
0.0865123
0.0861551
0.0857848
0.085405
0.0850141
0.0846157
0.0842043
0.0837778
0.0833355
0.0828801
0.0824144
0.0819464
0.0814743
0.080996
0.0805194
0.0800479
0.0795791
0.0791137
0.0786579
0.0782172
0.0777829
0.0773546
0.0769353
0.076533
0.0761416
0.0757602
0.075393
0.0750396
0.0747139
0.0744168
0.0741602
0.0739688
0.0738759
0.0739465
0.0742838
0.0750569
0.0765305
0.0790832
0.0831916
0.0881573
0.0878176
0.0874594
0.0870882
0.0867075
0.0863161
0.0859175
0.0855064
0.0850807
0.0846396
0.0841857
0.0837216
0.0832551
0.0827846
0.0823077
0.0818322
0.0813615
0.0808931
0.0804276
0.0799712
0.0795284
0.0790912
0.0786595
0.0782362
0.0778276
0.0774288
0.0770391
0.076662
0.0762981
0.0759607
0.0756501
0.0753783
0.0751693
0.0750565
0.0751054
0.075422
0.0761818
0.0776632
0.0802697
0.0845151
0.0894824
0.0891415
0.088782
0.0884096
0.0880277
0.0876354
0.087236
0.0868245
0.0863988
0.0859582
0.0855051
0.085042
0.0845763
0.0841065
0.0836304
0.0831552
0.0826844
0.0822156
0.0817494
0.0812917
0.0808457
0.0804045
0.0799684
0.0795414
0.0791246
0.0787171
0.0783181
0.0779291
0.0775544
0.0772044
0.0768796
0.0765914
0.0763634
0.0762286
0.0762528
0.0765442
0.0772838
0.0787637
0.0814124
0.0857828
0.0908256
0.0904835
0.0901229
0.0897491
0.0893661
0.0889726
0.0885721
0.0881599
0.0877338
0.0872932
0.0868404
0.0863777
0.0859122
0.0854425
0.0849664
0.0844909
0.0840193
0.0835494
0.083082
0.0826237
0.0821724
0.0817259
0.0812842
0.080851
0.0804263
0.0800099
0.079602
0.0792005
0.0788134
0.0784497
0.0781097
0.0778041
0.0775557
0.077397
0.0773937
0.0776555
0.0783686
0.0798374
0.0825163
0.0869992
0.0921854
0.0918424
0.0914808
0.091106
0.0907219
0.0903274
0.0899259
0.0895127
0.0890861
0.0886453
0.0881925
0.0877298
0.0872641
0.086794
0.0863175
0.0858412
0.0853683
0.0848967
0.0844271
0.0839659
0.0835101
0.0830581
0.0826101
0.0821696
0.0817363
0.0813099
0.0808899
0.0804778
0.0800782
0.0797004
0.0793445
0.0790211
0.0787509
0.0785664
0.0785329
0.0787611
0.0794414
0.0808899
0.0835865
0.0881686
0.0935596
0.093216
0.0928538
0.0924785
0.0920936
0.0916983
0.091296
0.0908822
0.0904551
0.0900141
0.0895611
0.0890983
0.0886323
0.0881616
0.0876844
0.0872069
0.0867324
0.0862589
0.0857868
0.0853217
0.0848609
0.084403
0.0839485
0.0835001
0.0830576
0.0826209
0.0821893
0.0817652
0.0813525
0.0809598
0.0805877
0.0802468
0.0799529
0.0797408
0.0796749
0.0798659
0.0805075
0.0819267
0.0846286
0.089296
0.0949451
0.0946015
0.0942393
0.0938638
0.0934787
0.0930832
0.0926805
0.0922664
0.0918391
0.0913981
0.0909452
0.0904824
0.090016
0.0895447
0.0890668
0.0885882
0.0881121
0.0876366
0.0871622
0.0866926
0.0862263
0.0857623
0.0853012
0.0848443
0.0843921
0.0839448
0.0835017
0.0830651
0.0826388
0.0822309
0.0818416
0.0814813
0.0811639
0.0809236
0.0808237
0.0809745
0.0815721
0.0829532
0.0856479
0.0903859
0.0963385
0.0959953
0.0956338
0.0952589
0.0948742
0.0944791
0.0940766
0.0936628
0.0932359
0.0927953
0.0923428
0.0918803
0.0914138
0.0909422
0.0904637
0.0899842
0.0895067
0.0890296
0.088554
0.0880786
0.0876062
0.0871361
0.0866696
0.086203
0.0857406
0.0852825
0.084828
0.0843791
0.0839393
0.0835159
0.083109
0.0827284
0.0823872
0.0821182
0.0819831
0.0820911
0.0826399
0.0839747
0.0866498
0.0914433
0.0977357
0.0973938
0.0970335
0.0966599
0.0962765
0.0958825
0.095481
0.0950682
0.0946424
0.0942029
0.0937513
0.0932896
0.0928234
0.0923519
0.0918732
0.0913931
0.0909147
0.0904365
0.089958
0.089478
0.0889999
0.0885234
0.08805
0.087575
0.087103
0.0866343
0.0861688
0.0857081
0.0852555
0.0848166
0.0843918
0.0839906
0.0836255
0.0833274
0.0831562
0.0832196
0.0837155
0.0849962
0.0876394
0.0924729
0.0991327
0.0987927
0.0984345
0.0980631
0.0976816
0.0972896
0.0968899
0.0964789
0.096055
0.0956174
0.0951675
0.0947071
0.0942419
0.093771
0.0932927
0.0928127
0.0923341
0.0918563
0.0913737
0.0908893
0.090406
0.0899234
0.0894429
0.08896
0.0884791
0.0879998
0.0875242
0.0870527
0.0865889
0.0861337
0.0856905
0.0852694
0.0848806
0.0845535
0.0843458
0.0843631
0.0848026
0.0860224
0.0886216
0.0934791
0.100525
0.100188
0.0998327
0.0994642
0.0990856
0.0986964
0.0982993
0.0978911
0.0974701
0.0970353
0.0965878
0.0961294
0.0956659
0.0951964
0.0947193
0.0942401
0.0937616
0.0932832
0.0927983
0.0923104
0.0918227
0.0913345
0.0908471
0.0903572
0.0898684
0.08938
0.0888943
0.0884124
0.0879362
0.0874662
0.0870063
0.0865658
0.0861537
0.0857981
0.085554
0.0855244
0.0859048
0.0870572
0.0896012
0.0944664
0.101909
0.101576
0.101224
0.100859
0.100484
0.100099
0.0997051
0.0993005
0.0988835
0.098453
0.0980083
0.0975527
0.0970916
0.0966243
0.0961495
0.0956721
0.095195
0.0947158
0.0942293
0.093739
0.0932478
0.0927548
0.0922601
0.091765
0.0912693
0.0907732
0.0902791
0.0897872
0.0892988
0.0888147
0.0883388
0.0878797
0.0874454
0.0870619
0.086782
0.0867052
0.0870245
0.0881043
0.0905822
0.0954389
0.103281
0.102952
0.102605
0.102244
0.101874
0.101493
0.101103
0.100703
0.100291
0.0998669
0.099425
0.0989728
0.0985151
0.0980512
0.0975796
0.0971053
0.0966315
0.0961512
0.0956636
0.0951719
0.0946787
0.0941823
0.0936827
0.093182
0.09268
0.0921773
0.0916774
0.091176
0.0906751
0.0901777
0.089687
0.0892105
0.0887552
0.0883452
0.0880303
0.0879067
0.0881638
0.0891664
0.0915682
0.0964003
0.104638
0.104313
0.103971
0.103616
0.10325
0.102875
0.10249
0.102095
0.101689
0.10127
0.100833
0.100386
0.0999325
0.099473
0.0990058
0.0985356
0.0980642
0.0975848
0.0970976
0.096606
0.0961124
0.0956137
0.0951105
0.0946052
0.0940969
0.0935891
0.093083
0.0925735
0.092062
0.091553
0.0910496
0.0905573
0.0900824
0.0896472
0.0892987
0.0891292
0.0893237
0.0902457
0.0925623
0.0973539
0.105975
0.105656
0.105319
0.10497
0.104611
0.104241
0.103863
0.103473
0.103073
0.10266
0.102229
0.101788
0.10134
0.100886
0.100425
0.0999605
0.0994907
0.099013
0.0985276
0.0980376
0.0975464
0.0970456
0.0965398
0.0960312
0.0955188
0.0950064
0.0944948
0.0939785
0.0934587
0.0929399
0.0924253
0.0919186
0.0914255
0.0909667
0.0905863
0.0903724
0.0905046
0.0913435
0.093567
0.0983027
0.107292
0.106978
0.106648
0.106305
0.105952
0.105589
0.105217
0.104834
0.10444
0.104034
0.10361
0.103175
0.102735
0.102287
0.101832
0.101373
0.100907
0.100432
0.0999499
0.0994627
0.0989735
0.0984732
0.0979667
0.0974562
0.0969416
0.0964262
0.0959104
0.0953888
0.0948623
0.0943356
0.0938126
0.0932921
0.0927821
0.0923016
0.0918915
0.0916351
0.0917061
0.0924604
0.0945838
0.099249
0.108585
0.108277
0.107954
0.107618
0.107272
0.106916
0.106551
0.106176
0.105788
0.10539
0.104973
0.104546
0.104113
0.103674
0.103227
0.102771
0.102309
0.101839
0.101361
0.100879
0.100392
0.0998935
0.0993877
0.0988762
0.0983618
0.0978451
0.0973267
0.0968012
0.0962696
0.0957363
0.0952052
0.0946736
0.0941492
0.0936494
0.0932119
0.0929156
0.0929272
0.0935965
0.0956141
0.100195
0.109853
0.109552
0.109235
0.108907
0.108568
0.10822
0.107862
0.107495
0.107115
0.106724
0.106316
0.105897
0.105472
0.105042
0.104601
0.104151
0.103695
0.103231
0.102759
0.102283
0.101799
0.101303
0.1008
0.10029
0.0997769
0.0992605
0.0987407
0.0982127
0.0976773
0.0971391
0.0966012
0.0960606
0.095524
0.0950071
0.094545
0.0942115
0.0941661
0.0947509
0.0966582
0.101142
0.111094
0.1108
0.110491
0.11017
0.10984
0.109499
0.109149
0.10879
0.108419
0.108036
0.107637
0.107226
0.106809
0.106387
0.105953
0.105511
0.105061
0.104604
0.10414
0.10367
0.103191
0.1027
0.1022
0.101694
0.101184
0.100669
0.100149
0.0996195
0.099082
0.0985409
0.0979978
0.0974498
0.0969031
0.0963718
0.0958879
0.0955203
0.0954209
0.0959225
0.0977163
0.102091
0.112308
0.112021
0.11172
0.111407
0.111084
0.110751
0.11041
0.110059
0.109697
0.109323
0.108933
0.108531
0.108122
0.107707
0.107282
0.106848
0.106406
0.105957
0.105502
0.105037
0.104564
0.10408
0.103586
0.103085
0.10258
0.102069
0.101548
0.101018
0.10048
0.0999389
0.0993915
0.0988379
0.0982833
0.0977401
0.0972374
0.096839
0.0966889
0.0971095
0.0987877
0.103044
0.113494
0.113214
0.112921
0.112616
0.112301
0.111977
0.111644
0.111302
0.110949
0.110585
0.110205
0.109812
0.10941
0.109002
0.108587
0.108162
0.107728
0.107287
0.10684
0.106383
0.105916
0.10544
0.104952
0.104459
0.103959
0.10345
0.102932
0.102404
0.101867
0.101326
0.100778
0.100221
0.0996612
0.0991088
0.0985904
0.0981647
0.0979674
0.0983098
0.0998715
0.103999
0.114651
0.114379
0.114093
0.113796
0.11349
0.113174
0.11285
0.112517
0.112173
0.111819
0.111451
0.111066
0.110673
0.110273
0.109867
0.109451
0.109026
0.108593
0.108154
0.107705
0.107246
0.106778
0.106298
0.105812
0.105317
0.104813
0.104299
0.103775
0.10324
0.102702
0.102154
0.101597
0.101034
0.100475
0.0999435
0.099494
0.0992536
0.0995211
0.100967
0.104959
0.11578
0.115515
0.115237
0.114948
0.114651
0.114344
0.114028
0.113704
0.113369
0.113025
0.112667
0.112292
0.111909
0.111518
0.111121
0.110714
0.110298
0.109874
0.109443
0.109002
0.108552
0.108092
0.107622
0.107143
0.106655
0.106157
0.105648
0.105128
0.104598
0.104063
0.103518
0.102962
0.102398
0.101835
0.101294
0.100824
0.100544
0.100741
0.102071
0.105921
0.11688
0.116622
0.116352
0.116072
0.115783
0.115484
0.115178
0.114862
0.114537
0.114202
0.113854
0.11349
0.113117
0.112736
0.112348
0.111951
0.111544
0.111129
0.110704
0.110274
0.109834
0.109383
0.108921
0.10845
0.10797
0.107479
0.106976
0.106463
0.105939
0.105409
0.104868
0.104314
0.103752
0.103187
0.102638
0.102152
0.101837
0.101966
0.103183
0.106886
0.11795
0.1177
0.117438
0.117166
0.116886
0.116596
0.116299
0.115992
0.115676
0.115351
0.115013
0.114659
0.114297
0.113926
0.113547
0.11316
0.112763
0.112357
0.111942
0.111521
0.11109
0.110648
0.110196
0.109733
0.109261
0.108778
0.108284
0.107777
0.10726
0.106737
0.106201
0.105652
0.105092
0.104528
0.103975
0.103474
0.103128
0.103195
0.104301
0.107851
0.118993
0.11875
0.118496
0.118232
0.11796
0.117679
0.117391
0.117093
0.116787
0.116472
0.116144
0.115801
0.115449
0.115087
0.114719
0.114341
0.113955
0.113559
0.113153
0.112741
0.112319
0.111888
0.111445
0.110991
0.110528
0.110054
0.109568
0.10907
0.108561
0.108045
0.107516
0.106973
0.106418
0.105855
0.1053
0.104788
0.104415
0.104423
0.105422
0.108818
0.120006
0.119771
0.119525
0.11927
0.119006
0.118734
0.118454
0.118166
0.117869
0.117564
0.117247
0.116915
0.116573
0.116221
0.115861
0.115495
0.115119
0.114733
0.114337
0.113933
0.113523
0.113101
0.112668
0.112224
0.11177
0.111305
0.110829
0.11034
0.109841
0.109334
0.108812
0.108276
0.107726
0.107167
0.106611
0.106092
0.105695
0.10565
0.106544
0.109783
0.120992
0.120765
0.120526
0.120279
0.120024
0.119761
0.11949
0.119211
0.118923
0.118627
0.118321
0.118002
0.117669
0.117327
0.116977
0.116621
0.116255
0.11588
0.115494
0.1151
0.1147
0.114288
0.113866
0.113431
0.112987
0.112532
0.112065
0.111587
0.1111
0.110601
0.110087
0.109558
0.109015
0.108461
0.107908
0.107383
0.106966
0.106871
0.107665
0.110747
0.12195
0.12173
0.1215
0.121261
0.121014
0.120759
0.120497
0.120227
0.119949
0.119663
0.119366
0.119059
0.118736
0.118405
0.118065
0.117719
0.117364
0.116999
0.116624
0.11624
0.115849
0.115449
0.115037
0.114613
0.114179
0.113734
0.113278
0.11281
0.112334
0.111844
0.11134
0.110819
0.110284
0.109737
0.109186
0.108659
0.108225
0.108085
0.108784
0.111707
0.12288
0.122668
0.122445
0.122215
0.121976
0.12173
0.121477
0.121216
0.120947
0.12067
0.120384
0.120087
0.119776
0.119455
0.119126
0.118789
0.118445
0.118091
0.117727
0.117353
0.116972
0.116582
0.116181
0.115768
0.115345
0.114911
0.114465
0.114009
0.113543
0.113064
0.112569
0.112058
0.111531
0.110992
0.110446
0.109918
0.10947
0.10929
0.109898
0.112663
0.123783
0.123578
0.123364
0.123141
0.122911
0.122674
0.12243
0.122177
0.121918
0.12165
0.121374
0.121088
0.120789
0.120479
0.120159
0.119832
0.119498
0.119155
0.118802
0.11844
0.118069
0.117689
0.117299
0.116897
0.116485
0.116062
0.115627
0.115185
0.114729
0.114259
0.113774
0.113273
0.112756
0.112225
0.111686
0.111158
0.1107
0.110484
0.111005
0.113614
0.12466
0.124463
0.124256
0.124041
0.12382
0.123591
0.123355
0.123112
0.122861
0.122604
0.122337
0.122061
0.121775
0.121475
0.121165
0.120848
0.120525
0.120193
0.119851
0.119499
0.119139
0.118769
0.11839
0.117999
0.117598
0.117187
0.116764
0.116333
0.115888
0.115429
0.114955
0.114465
0.113958
0.113436
0.112904
0.112379
0.111913
0.111664
0.112103
0.114558
0.125511
0.125321
0.125121
0.124915
0.124702
0.124481
0.124254
0.12402
0.123779
0.12353
0.123274
0.123008
0.122733
0.122443
0.122145
0.121838
0.121526
0.121204
0.120873
0.120533