/*--------------------------------*- C++ -*----------------------------------*\
| =========                 |                                                 |
| \\      /  F ield         | OpenFOAM: The Open Source CFD Toolbox           |
|  \\    /   O peration     | Version:  3.0.1                                 |
|   \\  /    A nd           | Web:      www.OpenFOAM.org                      |
|    \\/     M anipulation  |                                                 |
\*---------------------------------------------------------------------------*/
FoamFile
{
    version     2.0;
    format      ascii;
    class       volScalarField;
    location    "150";
    object      p;
}
// * * * * * * * * * * * * * * * * * * * * * * * * * * * * * * * * * * * * * //

dimensions      [0 2 -2 0 0 0 0];

internalField   nonuniform List<scalar> 
58000
(
0.294776
0.042074
-0.181714
-0.333957
-0.42966
-0.49827
-0.547992
-0.584302
-0.610879
-0.626803
-0.636297
-0.64145
-0.641953
-0.640346
-0.638629
-0.636496
-0.633236
-0.630085
-0.627351
-0.624452
-0.620736
-0.617121
-0.613863
-0.610582
-0.606691
-0.602288
-0.598244
-0.594389
-0.590382
-0.585943
-0.581232
-0.576903
-0.572811
-0.568719
-0.564455
-0.558744
-0.549371
-0.53926
-0.531847
-0.527135
0.37737
0.28368
0.175766
0.0557173
-0.0602909
-0.162786
-0.248238
-0.323943
-0.386667
-0.436784
-0.47788
-0.509487
-0.531972
-0.548415
-0.559861
-0.566829
-0.571047
-0.573574
-0.574739
-0.574714
-0.573892
-0.572666
-0.570971
-0.568844
-0.566176
-0.563459
-0.560539
-0.557369
-0.553929
-0.550189
-0.546547
-0.542829
-0.538939
-0.534797
-0.530298
-0.525564
-0.520144
-0.514667
-0.510895
-0.509882
0.280519
0.21573
0.144815
0.0636677
-0.0197264
-0.101695
-0.177913
-0.246329
-0.308514
-0.360527
-0.404368
-0.441171
-0.469633
-0.491264
-0.508399
-0.521188
-0.530086
-0.536384
-0.540923
-0.543973
-0.545647
-0.546273
-0.546203
-0.545601
-0.544505
-0.54284
-0.540758
-0.538388
-0.535761
-0.532955
-0.52987
-0.526551
-0.523057
-0.519379
-0.515542
-0.511509
-0.507162
-0.502656
-0.498476
-0.494687
0.250721
0.20934
0.162391
0.106
0.0436296
-0.0222825
-0.0879241
-0.150894
-0.21084
-0.264075
-0.311757
-0.353886
-0.388553
-0.416899
-0.440725
-0.459561
-0.473804
-0.484895
-0.493604
-0.500081
-0.504602
-0.507724
-0.509814
-0.511004
-0.511342
-0.510999
-0.510133
-0.508814
-0.507064
-0.504954
-0.502574
-0.499921
-0.497009
-0.493835
-0.490441
-0.486921
-0.483287
-0.479567
-0.475925
-0.472495
0.208859
0.179113
0.146759
0.107467
0.0623706
0.0120875
-0.0413691
-0.0948571
-0.148569
-0.198478
-0.244831
-0.287595
-0.324484
-0.355797
-0.383231
-0.406059
-0.424134
-0.438828
-0.450929
-0.460494
-0.467678
-0.47309
-0.477226
-0.480239
-0.482201
-0.483198
-0.483522
-0.483271
-0.482485
-0.481267
-0.479628
-0.477642
-0.475345
-0.472754
-0.469944
-0.466973
-0.463873
-0.460638
-0.457287
-0.453858
0.180214
0.156986
0.132406
0.102967
0.0690616
0.0304892
-0.0122383
-0.0563992
-0.102635
-0.147371
-0.190358
-0.231445
-0.268298
-0.300671
-0.329957
-0.355225
-0.375986
-0.393449
-0.408291
-0.420443
-0.429972
-0.437511
-0.443592
-0.448344
-0.451819
-0.454132
-0.455651
-0.456478
-0.456652
-0.456269
-0.455367
-0.454062
-0.45239
-0.450372
-0.448085
-0.445597
-0.442955
-0.440137
-0.43713
-0.43399
0.155937
0.137041
0.117462
0.0943346
0.0678538
0.037605
0.00329124
-0.0328361
-0.0718661
-0.110855
-0.14935
-0.18728
-0.222489
-0.254304
-0.283865
-0.31018
-0.332467
-0.351723
-0.368513
-0.382663
-0.394112
-0.403449
-0.411223
-0.417539
-0.422431
-0.425988
-0.428644
-0.430504
-0.431613
-0.432068
-0.431901
-0.43127
-0.430215
-0.428765
-0.426999
-0.42498
-0.422765
-0.42033
-0.417649
-0.414778
0.136341
0.12032
0.103986
0.0850056
0.0635168
0.0390822
0.011069
-0.0186902
-0.0515183
-0.0850911
-0.11893
-0.153098
-0.185743
-0.215957
-0.244668
-0.27092
-0.293741
-0.31392
-0.331895
-0.347407
-0.360276
-0.371023
-0.380181
-0.387817
-0.393938
-0.398605
-0.402292
-0.405102
-0.407079
-0.408315
-0.408843
-0.408852
-0.408383
-0.407471
-0.406193
-0.404612
-0.402794
-0.400717
-0.398353
-0.395772
0.120126
0.106185
0.0921176
0.0760029
0.0579769
0.0376543
0.0143017
-0.0105671
-0.0383291
-0.0671895
-0.0967166
-0.12709
-0.1568
-0.184851
-0.212014
-0.237431
-0.260029
-0.280405
-0.298892
-0.315176
-0.328982
-0.34074
-0.350943
-0.35962
-0.366753
-0.372363
-0.376944
-0.38059
-0.383343
-0.385288
-0.386454
-0.387052
-0.387127
-0.386714
-0.38589
-0.384716
-0.383263
-0.381516
-0.37945
-0.377145
0.106612
0.0942319
0.0818231
0.0677828
0.0522496
0.0349003
0.0150225
-0.00611908
-0.0298539
-0.0547826
-0.0805428
-0.107403
-0.134169
-0.159853
-0.185111
-0.209209
-0.231052
-0.251086
-0.269552
-0.286112
-0.30042
-0.312811
-0.323727
-0.33316
-0.341074
-0.347442
-0.35276
-0.357111
-0.36053
-0.363093
-0.364823
-0.365948
-0.366511
-0.36655
-0.366136
-0.365328
-0.364206
-0.362759
-0.360964
-0.358914
0.0952379
0.0840762
0.0729364
0.0604605
0.0467894
0.031657
0.0144125
-0.00387031
-0.0244179
-0.0461284
-0.0687073
-0.0924658
-0.116474
-0.139814
-0.16305
-0.185579
-0.206345
-0.22567
-0.243726
-0.260172
-0.274618
-0.287312
-0.298645
-0.30857
-0.317036
-0.323975
-0.32987
-0.334786
-0.338752
-0.341835
-0.344049
-0.34563
-0.346618
-0.34705
-0.346997
-0.346513
-0.345683
-0.344502
-0.342947
-0.341128
0.0855895
0.0754082
0.0652729
0.0540211
0.0417911
0.0283612
0.0131575
-0.00290066
-0.0209184
-0.0400075
-0.059934
-0.0810236
-0.102553
-0.123698
-0.144953
-0.16583
-0.185346
-0.203737
-0.22112
-0.237167
-0.251469
-0.264198
-0.275693
-0.285879
-0.294693
-0.302026
-0.308338
-0.313684
-0.318079
-0.321582
-0.324196
-0.326156
-0.327503
-0.32827
-0.328524
-0.328318
-0.327739
-0.326786
-0.32544
-0.323819
0.0773449
0.0679736
0.0586603
0.0483955
0.0373147
0.0252325
0.0116456
-0.00265143
-0.0186388
-0.0355876
-0.0533102
-0.0721285
-0.0914817
-0.110639
-0.130033
-0.149281
-0.167486
-0.184823
-0.201376
-0.216834
-0.230783
-0.243339
-0.254793
-0.265049
-0.274032
-0.281602
-0.28819
-0.293836
-0.298547
-0.302372
-0.3053
-0.307566
-0.309203
-0.310245
-0.310755
-0.310781
-0.310411
-0.309648
-0.308476
-0.307025
0.0702537
0.0615671
0.0529434
0.0434972
0.0333585
0.0223689
0.0100925
-0.00278003
-0.0171164
-0.0323033
-0.0481901
-0.0650847
-0.0825438
-0.0999288
-0.117625
-0.135329
-0.152238
-0.168484
-0.184123
-0.198872
-0.21233
-0.224561
-0.235818
-0.245987
-0.254992
-0.262666
-0.269406
-0.275237
-0.280161
-0.284216
-0.287378
-0.289876
-0.291741
-0.293001
-0.293715
-0.293927
-0.293726
-0.293116
-0.292085
-0.290775
0.0641178
0.0560213
0.0479899
0.0392373
0.0298889
0.0198083
0.00861547
-0.00308316
-0.0160542
-0.0297759
-0.0441245
-0.0593853
-0.0752045
-0.0910267
-0.107195
-0.123472
-0.139143
-0.154308
-0.169008
-0.182986
-0.195862
-0.207665
-0.218611
-0.228577
-0.237483
-0.245148
-0.251936
-0.257857
-0.262903
-0.267105
-0.270428
-0.273092
-0.275124
-0.276549
-0.277419
-0.277774
-0.277703
-0.277212
-0.276292
-0.275096
0.0587794
0.0511999
0.0436864
0.0355336
0.0268616
0.0175512
0.00727174
-0.00344104
-0.0152679
-0.0277551
-0.0408026
-0.0546716
-0.0690706
-0.0835196
-0.0983267
-0.113301
-0.12781
-0.141937
-0.155708
-0.168894
-0.181139
-0.192449
-0.203005
-0.212681
-0.2214
-0.228969
-0.235718
-0.241645
-0.246736
-0.251013
-0.254433
-0.257205
-0.25935
-0.260888
-0.26187
-0.262329
-0.262353
-0.26195
-0.261113
-0.260007
0.0541098
0.0469892
0.0399363
0.0323105
0.0242274
0.0155826
0.00608515
-0.00378688
-0.0146397
-0.0260754
-0.0380108
-0.050683
-0.0638504
-0.0770941
-0.0906894
-0.104485
-0.117922
-0.131067
-0.143943
-0.156342
-0.167937
-0.178716
-0.188834
-0.198164
-0.206631
-0.214034
-0.220674
-0.226541
-0.231611
-0.235903
-0.239365
-0.242193
-0.244402
-0.246012
-0.247065
-0.247594
-0.247681
-0.247338
-0.246562
-0.245524
0.0500041
0.0432959
0.0366573
0.0295016
0.0219393
0.0138774
0.00506017
-0.0040833
-0.0140971
-0.0246258
-0.0356003
-0.0472368
-0.0593294
-0.0715115
-0.0840309
-0.0967638
-0.109217
-0.121448
-0.133474
-0.145111
-0.156059
-0.166292
-0.175943
-0.184888
-0.193057
-0.200245
-0.206722
-0.212475
-0.217474
-0.221729
-0.225187
-0.228026
-0.23026
-0.231903
-0.232995
-0.233562
-0.233687
-0.233381
-0.232644
-0.231659
0.0463764
0.0400424
0.0337808
0.0270488
0.0199523
0.0124089
0.00419041
-0.004314
-0.0135948
-0.0233332
-0.03347
-0.0442011
-0.0553506
-0.0665942
-0.0781551
-0.0899329
-0.101489
-0.112874
-0.124103
-0.135014
-0.145327
-0.155013
-0.164187
-0.172727
-0.180566
-0.187502
-0.193779
-0.199377
-0.204263
-0.208443
-0.211857
-0.214671
-0.216896
-0.218541
-0.219643
-0.220225
-0.220365
-0.220077
-0.219364
-0.218418
0.0431564
0.0371647
0.0312484
0.0249022
0.0182272
0.0111492
0.00346421
-0.00447269
-0.0131072
-0.0221492
-0.0315481
-0.0414828
-0.0517985
-0.0622078
-0.0729131
-0.0838308
-0.0945707
-0.105178
-0.115664
-0.125887
-0.135591
-0.14474
-0.153436
-0.161562
-0.169054
-0.175715
-0.181763
-0.187177
-0.191919
-0.195992
-0.199331
-0.202092
-0.20428
-0.205902
-0.206991
-0.207567
-0.207705
-0.20742
-0.20672
-0.205804
0.0402844
0.0346085
0.0290114
0.0230187
0.0167282
0.0100728
0.00286733
-0.00456117
-0.0126195
-0.0210427
-0.0297863
-0.0390135
-0.0485883
-0.0582528
-0.0681906
-0.0783323
-0.0883296
-0.0982224
-0.108021
-0.117597
-0.126719
-0.13535
-0.143577
-0.151287
-0.158423
-0.164795
-0.170598
-0.175807
-0.180382
-0.184323
-0.187566
-0.19025
-0.19238
-0.193958
-0.195017
-0.195571
-0.195694
-0.195402
-0.194705
-0.193812
0.0377109
0.0323281
0.0270275
0.0213615
0.015424
0.00915433
0.00238418
-0.00458445
-0.0121254
-0.0199936
-0.0281504
-0.0367456
-0.0456571
-0.0546528
-0.0639004
-0.0733405
-0.0826603
-0.0918971
-0.101058
-0.11003
-0.118602
-0.126735
-0.134506
-0.141808
-0.148588
-0.154664
-0.160211
-0.165201
-0.169594
-0.173388
-0.176515
-0.179106
-0.181161
-0.182682
-0.183696
-0.184218
-0.184315
-0.184008
-0.18331
-0.182437
0.0353939
0.0302847
0.025261
0.0198981
0.0142868
0.00837212
0.00199946
-0.00455047
-0.0116225
-0.0189899
-0.0266174
-0.0346429
-0.0429572
-0.0513493
-0.0599726
-0.0687768
-0.0774783
-0.086111
-0.0946831
-0.103093
-0.111146
-0.118804
-0.126137
-0.133043
-0.139472
-0.145249
-0.150535
-0.155299
-0.1595
-0.163135
-0.166136
-0.168621
-0.170589
-0.172042
-0.173002
-0.173483
-0.173549
-0.173221
-0.17252
-0.171665
0.0332984
0.0284455
0.0236812
0.0186013
0.0132929
0.00770619
0.00169903
-0.00446678
-0.0111114
-0.0180232
-0.02517
-0.0326797
-0.0404527
-0.0482967
-0.0563535
-0.0645787
-0.0727144
-0.0807922
-0.0888191
-0.0967044
-0.104272
-0.111481
-0.118395
-0.124917
-0.131004
-0.136487
-0.141511
-0.146046
-0.15005
-0.15352
-0.156386
-0.158758
-0.160631
-0.162007
-0.162908
-0.163342
-0.163373
-0.163024
-0.162317
-0.161482
0.0313945
0.0267827
0.0222622
0.0174473
0.0124217
0.00713982
0.00147011
-0.00434179
-0.0105938
-0.0170891
-0.0237972
-0.0308366
-0.038117
-0.0454618
-0.0530014
-0.0606978
-0.0683147
-0.0758809
-0.0834038
-0.0908017
-0.0979124
-0.104698
-0.111213
-0.117369
-0.123124
-0.128318
-0.133084
-0.137391
-0.141197
-0.144498
-0.147224
-0.149478
-0.151253
-0.152549
-0.153385
-0.153771
-0.153765
-0.153394
-0.152683
-0.151867
0.0296569
0.0252727
0.0209819
0.016416
0.0116549
0.00665731
0.00130088
-0.00418342
-0.0100738
-0.0161859
-0.0224914
-0.0291005
-0.0359302
-0.0428175
-0.0498837
-0.0570951
-0.0642346
-0.0713291
-0.0783848
-0.0853287
-0.0920124
-0.098398
-0.104536
-0.110341
-0.115777
-0.120692
-0.125205
-0.129286
-0.132895
-0.136027
-0.138613
-0.140746
-0.142421
-0.143634
-0.144405
-0.144741
-0.1447
-0.144307
-0.143593
-0.142799
0.0280642
0.0238953
0.0198214
0.0154899
0.010977
0.00624524
0.0011806
-0.00399941
-0.00955479
-0.0153133
-0.0212479
-0.0274611
-0.0338767
-0.0403434
-0.0469737
-0.0537387
-0.060438
-0.0670959
-0.0737187
-0.0802402
-0.0865236
-0.0925327
-0.0983132
-0.103785
-0.108916
-0.113561
-0.117829
-0.12169
-0.125105
-0.128069
-0.130515
-0.132529
-0.134103
-0.135233
-0.135939
-0.136227
-0.136151
-0.135738
-0.135024
-0.134253
0.0265979
0.0226333
0.0187644
0.0146539
0.0103744
0.0058918
0.00109998
-0.00379631
-0.00904062
-0.0144713
-0.0200625
-0.0259101
-0.0319437
-0.0380222
-0.0442502
-0.0506027
-0.0568946
-0.0631483
-0.0693687
-0.0754962
-0.0814051
-0.0870602
-0.0925032
-0.0976589
-0.102498
-0.106884
-0.110915
-0.114562
-0.117789
-0.120589
-0.122897
-0.124793
-0.126267
-0.127317
-0.127959
-0.1282
-0.128091
-0.127662
-0.126949
-0.126202
0.0252422
0.0214718
0.0177971
0.0138953
0.0098356
0.00558727
0.00105113
-0.00358014
-0.00853439
-0.01366
-0.0189325
-0.0244408
-0.0301206
-0.0358401
-0.0416958
-0.0476663
-0.05358
-0.0594576
-0.0653036
-0.0710637
-0.0766216
-0.0819438
-0.0870684
-0.0919246
-0.0964866
-0.100624
-0.104427
-0.107869
-0.110913
-0.113554
-0.115728
-0.117507
-0.118885
-0.119856
-0.120437
-0.120633
-0.120494
-0.12005
-0.119341
-0.118618
0.0239839
0.0203982
0.0169073
0.013203
0.0093507
0.00532287
0.00102698
-0.00335598
-0.00803904
-0.01288
-0.0178556
-0.0230487
-0.0283995
-0.0337853
-0.0392956
-0.0449113
-0.050473
-0.0560002
-0.0614971
-0.0669139
-0.0721431
-0.0771523
-0.0819764
-0.0865492
-0.0908476
-0.0947475
-0.0983336
-0.101578
-0.104446
-0.106932
-0.108976
-0.110643
-0.111927
-0.112822
-0.113345
-0.113498
-0.113333
-0.112875
-0.112171
-0.111472
0.0228114
0.0194016
0.0160849
0.0125676
0.00891133
0.0050915
0.00102161
-0.0031284
-0.00755718
-0.0121318
-0.0168302
-0.0217292
-0.0267737
-0.0318485
-0.037037
-0.0423222
-0.0475561
-0.0527564
-0.0579272
-0.0630227
-0.0679434
-0.0726579
-0.0771993
-0.0815037
-0.0855519
-0.0892263
-0.092604
-0.0956597
-0.0983575
-0.100696
-0.102613
-0.104174
-0.105366
-0.10619
-0.106656
-0.106772
-0.106579
-0.106112
-0.105412
-0.104737
0.021715
0.0184729
0.0153212
0.0119813
0.00851053
0.00488699
0.0010301
-0.00290085
-0.00709085
-0.0114159
-0.0158547
-0.0204787
-0.025237
-0.0300217
-0.0349096
-0.0398862
-0.0448138
-0.049709
-0.0545745
-0.059369
-0.0639998
-0.0684377
-0.0727114
-0.0767629
-0.0805737
-0.084033
-0.0872123
-0.090087
-0.0926234
-0.0948187
-0.0966161
-0.0980715
-0.0991791
-0.099932
-0.100346
-0.100423
-0.100209
-0.0997312
-0.0990383
-0.098381
0.0206864
0.0176043
0.0146093
0.0114375
0.00814239
0.00470427
0.0010483
-0.00267642
-0.00664181
-0.0107324
-0.0149278
-0.0192942
-0.0237843
-0.0282974
-0.0329044
-0.0375923
-0.0422333
-0.0468425
-0.0514221
-0.055934
-0.0602928
-0.0644694
-0.0684916
-0.0723033
-0.0758892
-0.0791442
-0.0821348
-0.0848364
-0.0872179
-0.089277
-0.090958
-0.0923145
-0.0933388
-0.0940262
-0.0943896
-0.0944324
-0.094196
-0.0937096
-0.0930209
-0.0923815
0.0197186
0.0167891
0.0139429
0.0109307
0.00780186
0.00453903
0.00107298
-0.00245734
-0.00621121
-0.0100812
-0.0140479
-0.0181724
-0.0224109
-0.0266693
-0.031013
-0.0354304
-0.0398029
-0.0441439
-0.0484554
-0.0527022
-0.0568044
-0.0607355
-0.0645197
-0.068105
-0.0714776
-0.0745387
-0.077349
-0.0798863
-0.0821196
-0.0840478
-0.0856177
-0.086879
-0.0878242
-0.0884484
-0.0887638
-0.0887736
-0.0885165
-0.0880215
-0.0873361
-0.0867101
0.0188056
0.0160219
0.013317
0.0104562
0.00748489
0.00438798
0.00110169
-0.0022452
-0.00579955
-0.0094618
-0.0132134
-0.0171104
-0.0211124
-0.0251316
-0.0292281
-0.0333916
-0.0375122
-0.0416017
-0.0456611
-0.0496583
-0.0535197
-0.0572186
-0.0607782
-0.0641493
-0.0673198
-0.0701964
-0.0728357
-0.0752157
-0.0773077
-0.0791108
-0.0805745
-0.0817444
-0.0826138
-0.0831776
-0.0834471
-0.0834251
-0.0831481
-0.0826442
-0.0819605
-0.0813436
0.0179425
0.015298
0.0127272
0.0100101
0.00718824
0.00424858
0.00113242
-0.00204121
-0.00540721
-0.00887355
-0.0124225
-0.0161053
-0.0198846
-0.0236789
-0.0275432
-0.0314684
-0.0353522
-0.039205
-0.0430276
-0.0467901
-0.0504237
-0.0539038
-0.0572512
-0.0604195
-0.0633983
-0.0660999
-0.0685761
-0.0708065
-0.0727637
-0.0744473
-0.0758088
-0.0768915
-0.0776884
-0.0781938
-0.0784193
-0.0783664
-0.0780698
-0.0775563
-0.0768726
-0.0762601
0.017125
0.0146134
0.01217
0.00958934
0.00690941
0.00411871
0.00116363
-0.00184618
-0.00503419
-0.00831547
-0.0116732
-0.0151541
-0.0187237
-0.0223063
-0.0259524
-0.0296534
-0.0333144
-0.0369446
-0.0405441
-0.0440851
-0.0475042
-0.0507776
-0.0539242
-0.0569008
-0.0596977
-0.0622329
-0.0645539
-0.0666419
-0.0684703
-0.0700392
-0.0713036
-0.0723025
-0.0730287
-0.0734788
-0.0736613
-0.0735786
-0.0732622
-0.0727385
-0.072052
-0.0714399
0.0163496
0.0139649
0.0116425
0.00919155
0.00664629
0.00399683
0.00119442
-0.00166036
-0.00467996
-0.00778631
-0.0109636
-0.0142541
-0.0176258
-0.0210093
-0.0244501
-0.0279398
-0.031391
-0.0348115
-0.0382006
-0.041533
-0.0447494
-0.0478276
-0.0507843
-0.0535792
-0.0562036
-0.0585806
-0.0607542
-0.0627059
-0.0644117
-0.0658714
-0.0670419
-0.0679598
-0.0686198
-0.0690149
-0.0691562
-0.0690439
-0.0687077
-0.0681724
-0.0674814
-0.0668642
0.0156133
0.0133497
0.0111425
0.00881465
0.00639725
0.00388183
0.00122423
-0.00148367
-0.00434385
-0.00728485
-0.0102917
-0.0134024
-0.0165877
-0.0197836
-0.0230307
-0.0263215
-0.0295749
-0.0327976
-0.0359885
-0.0391237
-0.0421488
-0.0450424
-0.0478195
-0.0504422
-0.0529028
-0.0551296
-0.0571625
-0.0589852
-0.0605733
-0.061928
-0.0630092
-0.06385
-0.0644439
-0.0647877
-0.0648881
-0.0647463
-0.0643901
-0.0638418
-0.063144
-0.0625182
0.0149136
0.0127656
0.0106678
0.00845706
0.00616113
0.00377296
0.00125275
-0.00131587
-0.00402513
-0.00680978
-0.00965549
-0.0125966
-0.0156061
-0.0186249
-0.0216896
-0.0247926
-0.0278594
-0.0308955
-0.0338992
-0.0368484
-0.0396927
-0.0424116
-0.0450186
-0.0474782
-0.0497834
-0.0518674
-0.0537669
-0.0554653
-0.056942
-0.0581968
-0.0591913
-0.0599571
-0.0604896
-0.0607814
-0.0608424
-0.0606717
-0.0602944
-0.0597323
-0.0590256
-0.0583872
0.0142483
0.0122105
0.010217
0.00811757
0.00593705
0.00366968
0.00127983
-0.00115678
-0.00372308
-0.00635962
-0.00905326
-0.0118343
-0.0146777
-0.0175293
-0.0204217
-0.0233475
-0.0262382
-0.0290981
-0.0319253
-0.0346987
-0.0373717
-0.0399254
-0.0423713
-0.0446764
-0.0468341
-0.0487825
-0.0505544
-0.0521359
-0.0535051
-0.0546636
-0.0555761
-0.0562705
-0.0567407
-0.0569845
-0.0570059
-0.0568064
-0.0564078
-0.0558313
-0.0551134
-0.0544603
0.0136153
0.0116827
0.00978862
0.00779505
0.0057243
0.00357167
0.00130543
-0.001006
-0.00343682
-0.0059333
-0.00848296
-0.0111127
-0.0137992
-0.0164928
-0.0192226
-0.021981
-0.0247054
-0.027399
-0.0300591
-0.0326664
-0.0351778
-0.037575
-0.0398682
-0.0420269
-0.0440447
-0.0458641
-0.0475154
-0.0489839
-0.0502517
-0.0513186
-0.0521512
-0.052776
-0.0531891
-0.053383
-0.053367
-0.0531386
-0.052719
-0.0521266
-0.0513967
-0.0507257
0.0130132
0.0111808
0.00938131
0.00748854
0.00552223
0.00347866
0.00132972
-0.000862958
-0.00316557
-0.00552928
-0.00794274
-0.0104293
-0.0129674
-0.0155118
-0.0180877
-0.0206881
-0.0232553
-0.0257916
-0.0282942
-0.0307444
-0.0331027
-0.0353518
-0.0375007
-0.0395206
-0.0414056
-0.0431026
-0.0446384
-0.0460009
-0.0471707
-0.0481494
-0.0489066
-0.0494654
-0.04982
-0.0499686
-0.0499147
-0.0496579
-0.0492171
-0.0486084
-0.0478659
-0.047175
0.0124402
0.0107033
0.00899407
0.00719725
0.00533034
0.00339048
0.00135288
-0.000727126
-0.00290812
-0.00514619
-0.00743053
-0.00978161
-0.0121794
-0.0145824
-0.0170132
-0.0194641
-0.0218827
-0.0242705
-0.0266239
-0.0289257
-0.0311394
-0.0332484
-0.0352604
-0.0371488
-0.0389079
-0.0404886
-0.0419154
-0.0431752
-0.0442529
-0.0451479
-0.0458317
-0.0463261
-0.0466275
-0.0467295
-0.0466392
-0.0463548
-0.0458924
-0.045268
-0.0445115
-0.0437997
0.0118952
0.0102491
0.00862595
0.00692049
0.00514823
0.00330704
0.00137514
-0.000597729
-0.00266355
-0.00478241
-0.00694444
-0.00916725
-0.0114321
-0.0137017
-0.0159949
-0.0183047
-0.0205829
-0.02283
-0.0250426
-0.0272041
-0.0292807
-0.0312573
-0.0331398
-0.0349038
-0.0365433
-0.0380137
-0.0393362
-0.0405002
-0.0414888
-0.0423034
-0.0429181
-0.0433516
-0.0435989
-0.0436582
-0.0435322
-0.0432204
-0.042737
-0.0420967
-0.0413265
-0.0405937
0.0113768
0.00981726
0.00827611
0.00665766
0.00497555
0.00322825
0.00139686
-0.000474251
-0.0024307
-0.00443659
-0.00648264
-0.00858397
-0.0107232
-0.0128661
-0.0150295
-0.0172056
-0.019351
-0.0214654
-0.0235446
-0.0255734
-0.0275208
-0.0293719
-0.0311319
-0.0327779
-0.0343042
-0.0356699
-0.0368941
-0.0379654
-0.0388706
-0.0396092
-0.0401568
-0.0405313
-0.0407294
-0.0407454
-0.0405853
-0.0402468
-0.0397434
-0.0390873
-0.0383042
-0.0375498
0.0108838
0.00940667
0.00794378
0.00640821
0.00481198
0.00315415
0.00141823
-0.000356007
-0.0022087
-0.0041074
-0.00604344
-0.00802967
-0.0100499
-0.012073
-0.0141132
-0.0161632
-0.018183
-0.0201717
-0.0221251
-0.0240286
-0.0258533
-0.0275858
-0.02923
-0.0307644
-0.0321836
-0.0334502
-0.0345804
-0.0355652
-0.0363902
-0.0370559
-0.0375406
-0.0378595
-0.0380083
-0.0379848
-0.0377914
-0.0374275
-0.0369046
-0.0362337
-0.0354382
-0.0346636
0.0104153
0.00901645
0.00762823
0.00617164
0.00465727
0.00308464
0.00143955
-0.000242536
-0.00199671
-0.00379368
-0.00562531
-0.00750246
-0.00940993
-0.0113195
-0.0132434
-0.0151739
-0.0170748
-0.0189448
-0.0207791
-0.022564
-0.0242731
-0.0258934
-0.0274279
-0.0288569
-0.0301748
-0.0313473
-0.0323894
-0.033291
-0.0340408
-0.0346379
-0.0350621
-0.0353275
-0.0354312
-0.0353685
-0.035144
-0.0347558
-0.0342144
-0.03353
-0.0327233
-0.0319294
0.00997012
0.00864576
0.00732877
0.00594745
0.0045111
0.00301969
0.00146095
-0.000133385
-0.00179398
-0.00349434
-0.00522687
-0.00700057
-0.00880124
-0.0106034
-0.0124169
-0.0142345
-0.0160231
-0.0177806
-0.0195025
-0.0211754
-0.022775
-0.0242893
-0.0257203
-0.0270496
-0.0282717
-0.0293555
-0.0303135
-0.0311376
-0.0318155
-0.0323473
-0.0327149
-0.0329302
-0.0329897
-0.0328911
-0.0326369
-0.0322259
-0.0316676
-0.0309709
-0.0301542
-0.0293432
0.00954727
0.00829375
0.00704474
0.00573514
0.00437319
0.00295916
0.00148261
-2.81721e-05
-0.00159985
-0.00320846
-0.00484687
-0.00652248
-0.008222
-0.00992215
-0.0116314
-0.0133421
-0.0150243
-0.0166757
-0.0182911
-0.0198582
-0.0213546
-0.0227687
-0.0241018
-0.025337
-0.0264686
-0.0274685
-0.0283478
-0.0290977
-0.0297084
-0.0301789
-0.0304926
-0.0306603
-0.0306793
-0.0305463
-0.0302644
-0.0298325
-0.0292587
-0.0285512
-0.0277267
-0.0269003
0.00914578
0.00795962
0.00677548
0.00553425
0.00424322
0.00290297
0.00150461
7.34051e-05
-0.00141377
-0.00293522
-0.00448422
-0.00606678
-0.0076704
-0.00927402
-0.0108843
-0.012494
-0.0140757
-0.0156265
-0.0171415
-0.0186086
-0.0200073
-0.0213269
-0.0225676
-0.023714
-0.0247604
-0.0256813
-0.0264858
-0.0271667
-0.0277136
-0.0281263
-0.0283896
-0.0285129
-0.0284934
-0.0283288
-0.0280214
-0.0275703
-0.026983
-0.0262668
-0.0254361
-0.0245974
0.00876471
0.0076426
0.00652033
0.00534426
0.00412085
0.00285093
0.00152697
0.000171586
-0.00123525
-0.00267388
-0.00413796
-0.00563223
-0.00714499
-0.00865697
-0.0101737
-0.0116878
-0.0131743
-0.0146302
-0.0160501
-0.0174228
-0.0187294
-0.0199597
-0.0211134
-0.0221761
-0.0231422
-0.0239886
-0.0247232
-0.0253385
-0.025826
-0.0261846
-0.0264005
-0.0264823
-0.0264275
-0.0262335
-0.0259029
-0.0254349
-0.024836
-0.0241127
-0.0232788
-0.0224302
0.00840312
0.0073419
0.00627865
0.00516469
0.00400575
0.00280286
0.00154972
0.000266547
-0.00106391
-0.00242384
-0.00380723
-0.00521774
-0.00664434
-0.00806956
-0.00949756
-0.0109213
-0.0123178
-0.0136837
-0.015014
-0.0162976
-0.0175173
-0.0186634
-0.0197351
-0.0207189
-0.0216095
-0.0223859
-0.0230546
-0.023609
-0.0240405
-0.0243484
-0.0245204
-0.0245638
-0.0244763
-0.0242556
-0.0239043
-0.0234215
-0.0228131
-0.0220858
-0.02125
-0.0203955
0.00806012
0.00705678
0.00604983
0.00499505
0.00389754
0.00275855
0.0015728
0.000358416
-0.000899434
-0.00218457
-0.0034913
-0.00482231
-0.00616727
-0.00751015
-0.00885422
-0.0101924
-0.0115038
-0.0127849
-0.0140303
-0.0152299
-0.0163676
-0.0174344
-0.0184288
-0.0193386
-0.0201582
-0.0208689
-0.0214759
-0.021973
-0.0223525
-0.0226133
-0.0227446
-0.0227526
-0.0226351
-0.0223907
-0.0220209
-0.0215258
-0.0209107
-0.0201806
-0.019347
-0.0184889
0.00773483
0.00678652
0.00583323
0.00483483
0.0037959
0.00271777
0.00159615
0.000447277
-0.00074155
-0.00195561
-0.00318947
-0.00444507
-0.00571263
-0.00697752
-0.00824205
-0.00949935
-0.0107303
-0.0119311
-0.0130965
-0.0142169
-0.0152773
-0.0162694
-0.0171912
-0.0180313
-0.0187845
-0.0194335
-0.0199828
-0.0204265
-0.0207576
-0.0209748
-0.0210685
-0.0210441
-0.0208999
-0.020634
-0.0202487
-0.0197437
-0.0191237
-0.0183947
-0.0175643
-0.016707
0.00742641
0.00653037
0.00562824
0.00468356
0.0037004
0.00268029
0.00161968
0.000533194
-0.000590025
-0.00173653
-0.00290118
-0.00408522
-0.00527943
-0.00647038
-0.00765965
-0.00884048
-0.00999531
-0.0111203
-0.0122102
-0.0132559
-0.0142437
-0.0151653
-0.0160189
-0.0167937
-0.0174846
-0.0180759
-0.0185714
-0.0189655
-0.0192516
-0.0194286
-0.019488
-0.0194344
-0.0192659
-0.0189817
-0.0185832
-0.0180708
-0.0174491
-0.0167222
-0.0158995
-0.0150457
0.00713401
0.00628765
0.00543425
0.00454071
0.00361072
0.00264585
0.0016433
0.0006162
-0.00044466
-0.001527
-0.00262592
-0.00374208
-0.00486677
-0.00598768
-0.00710569
-0.00821423
-0.00929716
-0.0103505
-0.0113693
-0.0123447
-0.0132639
-0.0141195
-0.0149089
-0.0156225
-0.0162551
-0.0167927
-0.017238
-0.0175859
-0.0178307
-0.0179709
-0.0179989
-0.0179188
-0.0177296
-0.0174293
-0.0170205
-0.0165033
-0.0158816
-0.0151611
-0.0143469
-0.013501
0.00685685
0.00605767
0.0052507
0.00440586
0.00352646
0.00261421
0.00166688
0.000696297
-0.000305305
-0.0013267
-0.00236322
-0.00341499
-0.00447382
-0.00552837
-0.00657896
-0.00761916
-0.00863416
-0.00962001
-0.0105717
-0.0114808
-0.0123357
-0.0131291
-0.0138585
-0.0145147
-0.0150929
-0.0155803
-0.0159791
-0.0162846
-0.0164911
-0.0165976
-0.0165975
-0.0164942
-0.0162861
-0.0159731
-0.0155564
-0.0150368
-0.0144185
-0.0137048
-0.012904
-0.0120685
0.00659414
0.00583979
0.005077
0.00427848
0.0034473
0.00258511
0.00169029
0.000773477
-0.00017183
-0.00113536
-0.00211264
-0.00310337
-0.00409981
-0.00509152
-0.00607832
-0.00705395
-0.00800481
-0.00892695
-0.00981538
-0.0106623
-0.0114567
-0.0121917
-0.0128648
-0.0134675
-0.013995
-0.0144358
-0.0147915
-0.0150576
-0.0152293
-0.0153055
-0.0152799
-0.0151557
-0.0149325
-0.0146086
-0.0141868
-0.0136674
-0.0130539
-0.0123517
-0.0115646
-0.0107437
0.00634519
0.00563334
0.00491261
0.0041582
0.00337283
0.00255831
0.00171339
0.000847723
-4.41186e-05
-0.000952714
-0.00187378
-0.00280666
-0.00374403
-0.00467625
-0.00560269
-0.00651735
-0.0074077
-0.00826977
-0.00909871
-0.00988705
-0.0106246
-0.011305
-0.0119255
-0.0124782
-0.0129585
-0.013356
-0.0136718
-0.0139021
-0.0140419
-0.0140904
-0.0140425
-0.0139006
-0.0136638
-0.0133325
-0.0129077
-0.0123907
-0.0117854
-0.0110948
-0.0103261
-0.00952187
0.00610921
0.00543775
0.00475702
0.0040445
0.00330277
0.00253356
0.00173607
0.000919013
7.79342e-05
-0.000778528
-0.00164628
-0.00252433
-0.00340578
-0.00428168
-0.0051511
-0.0060082
-0.00684149
-0.00764699
-0.00841994
-0.00915326
-0.00983756
-0.0104667
-0.011038
-0.0115441
-0.0119806
-0.0123381
-0.0126174
-0.0128143
-0.0129255
-0.0129494
-0.0128815
-0.0127242
-0.0124775
-0.0121402
-0.011715
-0.0112028
-0.0106068
-0.00993225
-0.00918182
-0.00839817
0.00588558
0.0052524
0.00460968
0.00393705
0.00323674
0.00251063
0.00175819
0.000987328
0.000194426
-0.00061258
-0.00142976
-0.00225589
-0.00308441
-0.00390708
-0.00472259
-0.00552542
-0.00630492
-0.00705712
-0.00777746
-0.00845917
-0.00909349
-0.00967478
-0.0102002
-0.0106629
-0.0110588
-0.0113793
-0.0116247
-0.011792
-0.0118768
-0.0118787
-0.0117938
-0.0116239
-0.0113685
-0.0110285
-0.0106047
-0.0100993
-0.00951566
-0.00885685
-0.00812902
-0.00736739
0.00567358
0.00507672
0.00447016
0.00383535
0.00317448
0.0024893
0.00177963
0.00105265
0.000305447
-0.000454659
-0.00122391
-0.00200086
-0.00277933
-0.00355164
-0.00431632
-0.00506794
-0.00579675
-0.00649887
-0.00716971
-0.00780299
-0.00839062
-0.00892715
-0.00940979
-0.00983228
-0.0101906
-0.0104769
-0.0106916
-0.0108313
-0.010893
-0.0108756
-0.0107756
-0.0105951
-0.0103344
-0.0099927
-0.00957291
-0.00907622
-0.00850579
-0.00786662
-0.00716089
-0.00642448
0.00547264
0.0049102
0.00433795
0.00373913
0.00311564
0.00246936
0.00180029
0.00111495
0.000411089
-0.000304568
-0.00102841
-0.00175881
-0.00248995
-0.00321472
-0.00393136
-0.00463477
-0.00531586
-0.00597079
-0.00659526
-0.00718319
-0.00772705
-0.00822187
-0.00866472
-0.00904986
-0.00937342
-0.00962845
-0.00981486
-0.00993015
-0.00997074
-0.0099363
-0.00982398
-0.0096354
-0.00937021
-0.00902989
-0.00861544
-0.00812911
-0.00757445
-0.00695435
-0.00627433
-0.00556393
0.0052821
0.00475229
0.00421264
0.00364792
0.00305999
0.00245061
0.00182005
0.00117423
0.000511447
-0.000162101
-0.000842939
-0.00152931
-0.00221573
-0.00289555
-0.00356696
-0.00422491
-0.00486108
-0.00547177
-0.00605264
-0.00659808
-0.0071012
-0.00755704
-0.00796294
-0.00831349
-0.00860504
-0.00883131
-0.0089923
-0.00908499
-0.00910735
-0.00905831
-0.00893532
-0.00874028
-0.00847382
-0.00813551
-0.00772844
-0.00725411
-0.00671562
-0.00611779
-0.00546254
-0.0047805
0.00510146
0.00460253
0.00409378
0.00356147
0.00300721
0.00243288
0.00183883
0.00123049
0.000606619
-2.70546e-05
-0.000667193
-0.00131194
-0.00195611
-0.00259356
-0.00322224
-0.00383743
-0.0044314
-0.00500044
-0.00554056
-0.00604632
-0.00651124
-0.00693089
-0.0073025
-0.00762106
-0.00788318
-0.00808322
-0.00822079
-0.00829395
-0.0082997
-0.00823796
-0.00810676
-0.00790747
-0.00764015
-0.00730658
-0.00690792
-0.00644672
-0.00592644
-0.00535
-0.00472233
-0.00406883
0.0049301
0.00446042
0.00398101
0.00347936
0.00295712
0.00241598
0.00185653
0.00128372
0.000696699
0.000100764
-0.00050088
-0.0011063
-0.00171059
-0.00230802
-0.00289652
-0.00347145
-0.00402572
-0.00455579
-0.00505763
-0.00552628
-0.00595574
-0.00634167
-0.00668148
-0.00697054
-0.00720565
-0.0073817
-0.00749848
-0.00755348
-0.00754526
-0.00747297
-0.00733485
-0.00713263
-0.00686726
-0.0065387
-0.00615008
-0.00570322
-0.00520115
-0.00464856
-0.00404717
-0.00342368
0.00476755
0.00432553
0.0038739
0.00340138
0.0029094
0.00239976
0.0018731
0.00133394
0.000781785
0.000221548
-0.000343704
-0.000911974
-0.00147865
-0.0020384
-0.00258896
-0.0031261
-0.00364312
-0.00413654
-0.0046027
-0.00503673
-0.005433
-0.0057877
-0.00609808
-0.00635998
-0.00657034
-0.00672463
-0.00682234
-0.00686196
-0.00684107
-0.0067598
-0.00661687
-0.00641357
-0.00615027
-0.00582899
-0.00545108
-0.00501925
-0.00453689
-0.00400696
-0.00343383
-0.00283995
0.00461327
0.00419743
0.00377213
0.00332714
0.00286392
0.00238408