/*--------------------------------*- C++ -*----------------------------------*\
| =========                 |                                                 |
| \\      /  F ield         | OpenFOAM: The Open Source CFD Toolbox           |
|  \\    /   O peration     | Version:  3.0.1                                 |
|   \\  /    A nd           | Web:      www.OpenFOAM.org                      |
|    \\/     M anipulation  |                                                 |
\*---------------------------------------------------------------------------*/
FoamFile
{
    version     2.0;
    format      ascii;
    class       surfaceScalarField;
    location    "150";
    object      phi;
}
// * * * * * * * * * * * * * * * * * * * * * * * * * * * * * * * * * * * * * //

dimensions      [0 3 -1 0 0 0 0];

internalField   nonuniform List<scalar> 
115520
(
0.0106865
-0.00214552
-0.00854067
0.012107
-0.00142034
0.012659
-0.000551769
0.0127039
-4.47604e-05
0.0124633
0.00024081
0.0120813
0.000382143
0.011711
0.000370421
0.0113536
0.00035746
0.0110843
0.000269521
0.0109146
0.000169777
0.0108134
0.000101306
0.0107852
2.8284e-05
0.0108349
-4.95254e-05
0.0109227
-8.77915e-05
0.011035
-0.000112156
0.0111754
-0.000140334
0.0113375
-0.000161944
0.0115059
-0.000168434
0.0116742
-0.000168195
0.0118441
-0.000169835
0.0120194
-0.000175245
0.0121908
-0.000171319
0.0123546
-0.000163732
0.0125081
-0.000153436
0.0126599
-0.00015176
0.0128053
-0.00014536
0.0129418
-0.000136392
0.0130678
-0.000125894
0.0131819
-0.000114036
0.0132906
-0.000108649
0.0133902
-9.95678e-05
0.0134797
-8.94592e-05
0.0135589
-7.91338e-05
0.0136278
-6.8896e-05
0.0136766
-4.87118e-05
0.0136777
-1.0503e-06
0.0136546
2.31161e-05
0.0136333
2.14053e-05
0.0136419
-8.61416e-06
-6.21614e-05
0.013704
0.0066042
-0.0033502
-0.00539947
0.00769012
-0.00250618
0.00867481
-0.00153633
0.00951487
-0.000884724
0.010218
-0.000462217
0.0107628
-0.000162596
0.0111713
-3.79921e-05
0.011447
8.18522e-05
0.011644
7.26277e-05
0.0117889
2.4956e-05
0.0118825
7.82482e-06
0.0119641
-5.33179e-05
0.0120673
-0.000152648
0.0121694
-0.000189853
0.0122752
-0.000217863
0.0124077
-0.000272731
0.0125555
-0.000309715
0.0127071
-0.000319944
0.0128606
-0.000321674
0.0130245
-0.000333676
0.0131967
-0.000347362
0.0133658
-0.000340371
0.0135302
-0.00032814
0.0136881
-0.000311216
0.0138511
-0.000314765
0.0140072
-0.000301392
0.0141548
-0.000283926
0.0142928
-0.000263847
0.0144201
-0.000241315
0.0145455
-0.000233993
0.0146604
-0.0002144
0.014764
-0.000193041
0.0148554
-0.00017046
0.0149332
-0.000146668
0.0149995
-0.000114998
0.0150519
-5.34126e-05
0.0150955
-2.03935e-05
0.0151361
-1.91693e-05
0.0151795
-5.20106e-05
-0.000120528
0.0152379
0.00598732
-0.00437983
-0.00495765
0.00696511
-0.00348392
0.00790218
-0.00247333
0.00872702
-0.0017095
0.00945763
-0.00119276
0.0100954
-0.000800285
0.0106202
-0.000562734
0.0110719
-0.000369829
0.0114378
-0.000293177
0.0117387
-0.000275989
0.0119891
-0.000242456
0.0122016
-0.000265777
0.0123951
-0.000346086
0.0125716
-0.000366375
0.0127383
-0.000384463
0.0129106
-0.00044502
0.0130858
-0.000484903
0.0132596
-0.000493706
0.0134326
-0.000494567
0.0136101
-0.000511154
0.0137903
-0.000527532
0.0139665
-0.000516547
0.0141382
-0.000499747
0.0143043
-0.00047727
0.0144708
-0.000481289
0.0146298
-0.000460332
0.0147804
-0.000434441
0.014922
-0.000405499
0.0150543
-0.000373475
0.015181
-0.00036072
0.0152969
-0.000330237
0.0154015
-0.000297601
0.0154944
-0.00026335
0.0155751
-0.000227324
0.0156448
-0.000184705
0.0157015
-0.000110095
0.0157457
-6.45346e-05
0.0157811
-5.45072e-05
0.0158084
-7.9286e-05
-0.000139121
0.015827
0.00545015
-0.00524872
-0.00458128
0.00630845
-0.00434219
0.00716368
-0.00332852
0.00796753
-0.00251331
0.00871837
-0.00194356
0.00940646
-0.00148835
0.010009
-0.00116523
0.0105555
-0.000916262
0.011028
-0.000765724
0.0114405
-0.000688466
0.011804
-0.000605874
0.0121228
-0.000584506
0.0124088
-0.000632119
0.0126676
-0.000625143
0.0129043
-0.000621098
0.0131315
-0.000672239
0.013351
-0.000704337
0.0135614
-0.00070407
0.0137644
-0.000697497
0.013966
-0.000712734
0.0141661
-0.000727602
0.0143595
-0.000709937
0.014546
-0.000686186
0.014725
-0.000656243
0.0149028
-0.000659131
0.0150722
-0.000629637
0.0152321
-0.00059433
0.0153821
-0.000555508
0.0155218
-0.000513113
0.0156556
-0.000494526
0.0157781
-0.000452683
0.0158888
-0.000408248
0.0159873
-0.000361808
0.0160732
-0.000313211
0.0161486
-0.000260141
0.0162123
-0.000173784
0.0162636
-0.000115798
0.0163038
-9.46405e-05
0.0163334
-0.000108862
-0.000156938
0.0163512
0.00518972
-0.00604269
-0.00439576
0.00598101
-0.00513347
0.00677945
-0.00412694
0.00755274
-0.00328658
0.00830007
-0.00269087
0.00900979
-0.00219805
0.00965324
-0.00180865
0.0102571
-0.00152008
0.0107958
-0.00130447
0.0112787
-0.00117128
0.011717
-0.00104415
0.0121089
-0.000976376
0.0124607
-0.000983889
0.012782
-0.000946445
0.0130765
-0.00091554
0.0133516
-0.000947381
0.0136116
-0.00096429
0.0138575
-0.000949963
0.0140914
-0.000931373
0.0143183
-0.000939565
0.0145389
-0.000948248
0.0147504
-0.000921385
0.0149529
-0.000888596
0.0151462
-0.000849543
0.0153353
-0.000848252
0.0155147
-0.000809008
0.0156837
-0.000763283
0.0158419
-0.000713744
0.0159892
-0.000660301
0.0161288
-0.000634173
0.0162565
-0.000580325
0.0163718
-0.000523518
0.0164745
-0.000464474
0.0165643
-0.000403068
0.0166431
-0.00033892
0.0167099
-0.000240483
0.0167636
-0.00016946
0.0168045
-0.000135508
0.0168324
-0.000136775
-0.000171079
0.0168465
0.00503414
-0.00679306
-0.0042838
0.00578458
-0.00588391
0.00654376
-0.00488612
0.00728974
-0.00403256
0.00802392
-0.00342503
0.00873728
-0.0029114
0.00940224
-0.00247359
0.0100409
-0.00215872
0.0106258
-0.00188932
0.0111617
-0.0017072
0.0116585
-0.00154091
0.0121103
-0.00142815
0.0125191
-0.00139271
0.0128959
-0.00132327
0.0132431
-0.00126263
0.0135643
-0.00126859
0.0138649
-0.00126487
0.0141473
-0.00123235
0.0144135
-0.00119761
0.0146678
-0.00119375
0.0149116
-0.00119206
0.0151436
-0.00115335
0.0153641
-0.00110914
0.0155735
-0.00105887
0.0157759
-0.00105066
0.0159671
-0.00100023
0.0161467
-0.000942838
0.0163144
-0.000881435
0.01647
-0.000815891
0.0166167
-0.000780825
0.0167506
-0.000714186
0.0168713
-0.000644281
0.0169788
-0.000571956
0.0170729
-0.000497127
0.0171552
-0.000421194
0.0172248
-0.000310084
0.0172808
-0.000225367
0.017323
-0.000177681
0.0173512
-0.000165001
-0.000184855
0.017365
0.00495569
-0.00752184
-0.00422694
0.00568438
-0.0066126
0.00642027
-0.00562201
0.00714767
-0.00475995
0.00786952
-0.00414688
0.00857994
-0.00362182
0.00925503
-0.00314869
0.00991375
-0.00281743
0.0105294
-0.00250501
0.011104
-0.00228179
0.0116457
-0.00208253
0.0121459
-0.00192834
0.0126032
-0.00185002
0.0130288
-0.00174884
0.0134236
-0.00165744
0.0137882
-0.00163322
0.0141284
-0.00160499
0.0144472
-0.00155115
0.0147465
-0.00149695
0.0150295
-0.00147668
0.0152982
-0.00146073
0.0155524
-0.00140758
0.0157928
-0.00134955
0.0160199
-0.0012859
0.0162371
-0.00126787
0.0164415
-0.00120466
0.0166329
-0.00113419
0.0168111
-0.00105962
0.016976
-0.000980792
0.0171304
-0.000935194
0.0172711
-0.000854825
0.0173978
-0.000770955
0.0175104
-0.000684538
0.0176088
-0.000595518
0.0176945
-0.000506869
0.0177667
-0.000382272
0.0178244
-0.000283088
0.0178675
-0.000220798
0.0178958
-0.000193289
-0.000197999
0.017909
0.00492816
-0.00824242
-0.00420762
0.00564788
-0.00733233
0.0063726
-0.00634674
0.00709049
-0.00547784
0.00780505
-0.00486145
0.00851269
-0.00432945
0.00919367
-0.00382967
0.00986455
-0.00348831
0.0105013
-0.00314173
0.0111041
-0.00288464
0.0116799
-0.00265825
0.0122188
-0.00246724
0.0127169
-0.00234813
0.0131847
-0.00221665
0.0136221
-0.00209484
0.014027
-0.00203815
0.014405
-0.00198294
0.0147595
-0.00190561
0.015092
-0.00182942
0.0154044
-0.00178915
0.0156993
-0.00175554
0.0159772
-0.00168553
0.016239
-0.00161137
0.0164853
-0.00153215
0.0167189
-0.00150148
0.016938
-0.00142374
0.0171425
-0.00133867
0.0173324
-0.0012495
0.0175077
-0.00115605
0.0176707
-0.00109825
0.017819
-0.00100308
0.0179523
-0.000904233
0.0180705
-0.000802765
0.0181737
-0.000698635
0.018263
-0.000596234
0.018338
-0.000457227
0.0183977
-0.000342739
0.0184419
-0.000264999
0.0184705
-0.000221867
-0.000210765
0.0184832
0.00493756
-0.008964
-0.004216
0.00565739
-0.00805217
0.00638012
-0.00706949
0.00709635
-0.00619408
0.00780961
-0.00557472
0.00851769
-0.00503754
0.00920452
-0.0045165
0.00988464
-0.00416844
0.0105372
-0.00379428
0.0111617
-0.00350916
0.0117639
-0.00326046
0.0123339
-0.00303723
0.0128662
-0.00288041
0.0133703
-0.00272071
0.0138452
-0.00256973
0.0142869
-0.00247984
0.0147003
-0.00239638
0.0150889
-0.00229423
0.0154538
-0.00219426
0.0157958
-0.0021312
0.0161174
-0.00207711
0.01642
-0.00198809
0.0167043
-0.00189567
0.016971
-0.00179882
0.0172223
-0.00175276
0.0174573
-0.00165875
0.0176761
-0.00155745
0.0178787
-0.00145217
0.0180654
-0.00134266
0.0182381
-0.00127092
0.0183948
-0.00115976
0.0185353
-0.00104481
0.0186598
-0.000927216
0.0187681
-0.000806943
0.0188616
-0.000689653
0.0189396
-0.000535223
0.0190014
-0.000404513
0.0190468
-0.000310432
0.0190758
-0.000250842
-0.000223195
0.0190882
0.00497481
-0.00969318
-0.00424566
0.00570138
-0.00877874
0.00642903
-0.00779715
0.00715
-0.00691505
0.00786753
-0.00629226
0.00858024
-0.00575026
0.00927492
-0.00521119
0.00996441
-0.00485793
0.0106309
-0.00446073
0.0112736
-0.00415189
0.0118976
-0.00388447
0.0124934
-0.00363301
0.0130547
-0.00344175
0.0135901
-0.00325605
0.0140979
-0.00307756
0.0145728
-0.00295477
0.0150191
-0.00284265
0.0154399
-0.00271502
0.0158358
-0.00259018
0.0162069
-0.0025023
0.0165553
-0.00242547
0.0168828
-0.00231561
0.0171902
-0.00220305
0.0174781
-0.00208667
0.017748
-0.0020227
0.018
-0.00191068
0.0182341
-0.00179154
0.0184505
-0.0016686
0.0186494
-0.00154154
0.0188325
-0.00145408
0.0189984
-0.00132564
0.019147
-0.00119337
0.0192783
-0.00105848
0.0193923
-0.000920932
0.0194902
-0.000787536
0.0195715
-0.00061659
0.0196357
-0.000468666
0.0196826
-0.000357289
0.0197121
-0.000280345
-0.000235325
0.0197242
0.00503391
-0.0104349
-0.00429221
0.00577227
-0.00951712
0.00651019
-0.00853508
0.00724103
-0.00764589
0.00796766
-0.0070189
0.00868914
-0.00647176
0.00939449
-0.00591654
0.010095
-0.00555842
0.0107754
-0.00514117
0.0114351
-0.0048116
0.0120785
-0.00452787
0.0126969
-0.00425135
0.0132838
-0.00402867
0.0138467
-0.00381896
0.0143837
-0.00361462
0.0148888
-0.00345984
0.0153654
-0.00331924
0.0158163
-0.00316594
0.0162418
-0.00301561
0.016641
-0.00290151
0.0170157
-0.00280023
0.0173682
-0.00266804
0.0176988
-0.00253372
0.0180083
-0.00239612
0.0182976
-0.00231196
0.0185672
-0.00218028
0.0188173
-0.00204171
0.0190483
-0.00189954
0.0192602
-0.00175344
0.0194546
-0.00164846
0.0196303
-0.00150141
0.0197875
-0.00135054
0.0199261
-0.0011971
0.0200463
-0.00104108
0.0201491
-0.000890289
0.0202341
-0.00070166
0.0203009
-0.000535456
0.0203494
-0.000405759
0.0203796
-0.000310493
-0.00024721
0.0203915
0.00511068
-0.0111931
-0.00435251
0.00586485
-0.0102713
0.0066173
-0.00928753
0.0073622
-0.0083908
0.00810202
-0.00775873
0.00883606
-0.00720581
0.00955503
-0.00663551
0.0102688
-0.00627222
0.0109644
-0.00583679
0.0116413
-0.00548844
0.0123033
-0.00518987
0.0129425
-0.00489065
0.0135529
-0.00463906
0.0141409
-0.00440695
0.0147046
-0.00417826
0.0152373
-0.00399261
0.0157421
-0.00382398
0.0162212
-0.0036451
0.0166746
-0.003469
0.0171009
-0.00332776
0.0175014
-0.00320077
0.0178784
-0.00304504
0.0182323
-0.00288759
0.0185635
-0.0027273
0.0188724
-0.00262093
0.0191602
-0.00246802
0.019427
-0.0023085
0.019673
-0.00214559
0.0198986
-0.00197896
0.0201048
-0.00185471
0.0202911
-0.00168766
0.0204574
-0.00151685
0.0206039
-0.00134357
0.0207306
-0.0011678
0.0208386
-0.000998281
0.0209277
-0.000790742
0.0209974
-0.000605128
0.0210476
-0.000456021
0.0210786
-0.000341403
-0.000258878
0.0210902
0.00520212
-0.011971
-0.00442423
0.00597541
-0.0110446
0.0067459
-0.010058
0.00750836
-0.00915327
0.00826487
-0.00851526
0.00901484
-0.00795578
0.00975026
-0.00737095
0.0104798
-0.00700181
0.0111923
-0.00654929
0.0118873
-0.00618336
0.0125681
-0.00587075
0.0132279
-0.00555044
0.0138608
-0.00527192
0.0144724
-0.00501861
0.0150609
-0.00476675
0.0156197
-0.00455135
0.0161509
-0.00435525
0.0166568
-0.00415096
0.0171368
-0.00394899
0.017589
-0.00378005
0.0180147
-0.00362639
0.0184158
-0.00344614
0.0187926
-0.0032644
0.0191454
-0.00308015
0.0194743
-0.00294981
0.0197805
-0.00277422
0.0200643
-0.00259229
0.0203259
-0.00240719
0.0205655
-0.00221855
0.0207841
-0.00207331
0.0209814
-0.00188488
0.0211573
-0.00169278
0.021312
-0.0014983
0.0214457
-0.00130147
0.0215593
-0.00111184
0.0216527
-0.000884112
0.0217254
-0.000677899
0.0217777
-0.000508236
0.0218094
-0.000373171
-0.000270384
0.021821
0.005306
-0.0127714
-0.00450563
0.00610125
-0.0118399
0.00689276
-0.0108495
0.00767578
-0.0099363
0.00845202
-0.0092915
0.00922089
-0.00872466
0.00997543
-0.00812549
0.0107233
-0.00774965
0.0114546
-0.00728064
0.012169
-0.00689777
0.0128696
-0.00657138
0.0135502
-0.00623104
0.0142054
-0.00592705
0.0148401
-0.00565333
0.0154525
-0.00537913
0.0160361
-0.00513498
0.0165928
-0.00491192
0.0171242
-0.0046824
0.0176297
-0.00445453
0.0181072
-0.00425751
0.0185573
-0.0040765
0.018982
-0.00387088
0.0193815
-0.00366388
0.0197559
-0.00345452
0.0201048
-0.00329867
0.0204296
-0.00309906
0.0207307
-0.00289335
0.0210081
-0.00268464
0.0212622
-0.00247258
0.0214935
-0.00230469
0.0217021
-0.00209348
0.021888
-0.00187869
0.0220514
-0.00166165
0.0221923
-0.00144241
0.0223118
-0.00123125
0.0224097
-0.000982014
0.0224858
-0.000753965
0.0225401
-0.000562549
0.0225728
-0.000405896
-0.000281771
0.0225842
0.00542063
-0.0135967
-0.00459531
0.00624034
-0.0126596
0.00705551
-0.0116647
0.00786171
-0.0107425
0.00866034
-0.0100901
0.0094508
-0.00951512
0.0102269
-0.0089016
0.0109954
-0.00851812
0.0117475
-0.00803283
0.0124831
-0.00763329
0.0132047
-0.00729305
0.0139069
-0.00693324
0.0145847
-0.0066048
0.0152424
-0.0063111
0.0158784
-0.0060151
0.0164864
-0.00574297
0.0170678
-0.00549335
0.0176242
-0.00523873
0.0181545
-0.00498491
0.0186566
-0.00475953
0.0191307
-0.00455059
0.0195787
-0.0043189
0.0200006
-0.00408575
0.0203963
-0.00385028
0.0207652
-0.00366754
0.0211088
-0.00344265
0.0214273
-0.00321185
0.0217208
-0.00297819
0.0219896
-0.00274132
0.022234
-0.00254917
0.0224543
-0.00231378
0.0226506
-0.00207491
0.0228228
-0.00183393
0.0229713
-0.00159089
0.0230969
-0.00135677
0.0231995
-0.00108466
0.023279
-0.000833495
0.0233356
-0.000619087
0.0233694
-0.000439665
-0.000293097
0.0233807
0.00554469
-0.0144493
-0.00469218
0.00639114
-0.013506
0.00723233
-0.0125059
0.0080641
-0.0115743
0.00888753
-0.0109136
0.009702
-0.0103296
0.0105019
-0.00970155
0.0112933
-0.00930946
0.0120683
-0.00880787
0.0128266
-0.00839163
0.0135708
-0.00803722
0.0142957
-0.00765819
0.0149968
-0.00730592
0.0156781
-0.00699238
0.0163378
-0.00667482
0.0169701
-0.00637526
0.0175761
-0.00609932
0.018157
-0.00581959
0.0187118
-0.00553973
0.019238
-0.00528575
0.0197358
-0.00504839
0.0202068
-0.00478995
0.0206509
-0.00452983
0.0210679
-0.00426731
0.0214568
-0.00405645
0.0218193
-0.00380509
0.0221554
-0.00354794
0.0224652
-0.00328802
0.0227489
-0.003025
0.0230067
-0.00280704
0.023239
-0.00254606
0.0234458
-0.00228172
0.0236273
-0.00201538
0.0237836
-0.00174716
0.0239154
-0.00148861
0.024023
-0.00119224
0.0241061
-0.000916637
0.024165
-0.000677962
0.0241999
-0.00047456
-0.00030442
0.0242112
0.00567712
-0.0153311
-0.00479533
0.00655244
-0.0143814
0.00742184
-0.0133753
0.00828136
-0.0124338
0.00913183
-0.011764
0.00997255
-0.0111703
0.0107985
-0.0105275
0.0116148
-0.0101258
0.0124146
-0.00960769
0.0131975
-0.00917454
0.0139657
-0.00880546
0.0147147
-0.00840717
0.0154402
-0.00803141
0.0161458
-0.00769793
0.0168297
-0.00735879
0.0174866
-0.00703213
0.0181172
-0.00672995
0.0187226
-0.00642498
0.0193018
-0.00611887
0.019852
-0.00583602
0.0203734
-0.00556976
0.0208674
-0.0052839
0.0213336
-0.00499605
0.0217718
-0.00470558
0.0221808
-0.00446546
0.0225622
-0.00418648
0.0229161
-0.00390179
0.0232424
-0.00361433
0.0235412
-0.00332382
0.0238127
-0.00307854
0.0240573
-0.00279059
0.0242749
-0.00249936
0.0244658
-0.00220626
0.02463
-0.00191142
0.0247684
-0.00162696
0.0248811
-0.00130491
0.024968
-0.00100352
0.0250293
-0.000739277
0.0250654
-0.000510659
-0.000315807
0.0250768
0.00581708
-0.0162442
-0.00490398
0.00672327
-0.0152876
0.00762295
-0.014275
0.0085123
-0.0133232
0.00939189
-0.0126436
0.010261
-0.0120394
0.0111149
-0.0113814
0.0119582
-0.0109692
0.0127848
-0.0104342
0.013594
-0.00998378
0.0143879
-0.00959939
0.0151624
-0.00918161
0.0159134
-0.00878246
0.0166442
-0.00842873
0.0173532
-0.0080678
0.0180352
-0.00771414
0.0186909
-0.00738564
0.0193211
-0.00705517
0.0199247
-0.00672251
0.0204991
-0.00641045
0.0210441
-0.00611477
0.0215611
-0.00580083
0.0220495
-0.00548446
0.022509
-0.00516516
0.0229383
-0.00489471
0.0233388
-0.00458699
0.0237106
-0.00427356
0.0240535
-0.00395731
0.0243677
-0.00363801
0.0246531
-0.00336393
0.0249101
-0.00304761
0.0251388
-0.00272807
0.0253393
-0.00240677
0.0255118
-0.00208387
0.0256568
-0.001772
0.0257748
-0.00142284
0.0258655
-0.00109428
0.0259294
-0.000803126
0.0259667
-0.000548037
-0.00032733
0.0259783
0.00596384
-0.0171905
-0.00501752
0.00690288
-0.0162266
0.00783482
-0.0152069
0.00875598
-0.0142443
0.00966668
-0.0135543
0.0105661
-0.0129389
0.01145
-0.0122652
0.0123224
-0.0118415
0.0131774
-0.0112893
0.0140147
-0.0108211
0.014836
-0.0104207
0.0156374
-0.00998302
0.0164153
-0.00956034
0.0171724
-0.00918591
0.0179075
-0.00880281
0.0186154
-0.00842208
0.0192967
-0.00806701
0.0199522
-0.00771064
0.0205807
-0.007351
0.0211796
-0.00700932
0.0217485
-0.00668368
0.0222886
-0.00634093
0.0227994
-0.00599524
0.0232804
-0.00564622
0.0237301
-0.00534439
0.0241499
-0.00500682
0.0245398
-0.00466347
0.0248997
-0.00431718
0.0252295
-0.00396778
0.025529
-0.00366344
0.0257987
-0.00331735
0.0260387
-0.00296808
0.0262491
-0.00261712
0.0264299
-0.0022647
0.0265818
-0.00192391
0.0267051
-0.00154615
0.0267999
-0.00118901
0.0268663
-0.000869604
0.0269051
-0.000586775
-0.000339069
0.0269168
0.00611685
-0.018172
-0.00513539
0.00709062
-0.0172004
0.00805676
-0.0161731
0.00901166
-0.0151992
0.00995543
-0.0144981
0.0108872
-0.0138707
0.0118029
-0.0131809
0.0127062
-0.0127448
0.0135916
-0.0121747
0.0144587
-0.0116882
0.015309
-0.011271
0.0161389
-0.0108129
0.016945
-0.0103664
0.0177298
-0.00997072
0.0184919
-0.00956492
0.0192267
-0.00915687
0.0199345
-0.00877485
0.0206159
-0.00839207
0.0212699
-0.00800492
0.0218936
-0.00763311
0.0224868
-0.00727688
0.0230505
-0.00690456
0.0235839
-0.0065287
0.0240867
-0.00614903
0.0245571
-0.00581479
0.0249966
-0.00544624
0.0254049
-0.00507178
0.0257819
-0.0046942
0.0261275
-0.00431339
0.0264414
-0.00397735
0.0267241
-0.00360007
0.0269757
-0.00321962
0.0271961
-0.00283753
0.0273855
-0.0024541
0.0275444
-0.00208285
0.0276733
-0.001675
0.0277721
-0.00128785
0.0278413
-0.000938804
0.0278815
-0.000626955
-0.00035111
0.0278935
0.00627561
-0.0191905
-0.00525711
0.00728601
-0.0182108
0.00828826
-0.0171753
0.00927879
-0.0161898
0.0102575
-0.0154769
0.0112235
-0.0148367
0.0121729
-0.0141303
0.013109
-0.0136808
0.0140266
-0.0130923
0.0149252
-0.0125868
0.0158062
-0.012152
0.0166662
-0.0116729
0.0175019
-0.0112022
0.0183157
-0.0107845
0.0191061
-0.0103553
0.0198688
-0.00991958
0.020604
-0.00951009
0.0213122
-0.00910027
0.0219923
-0.00868498
0.0226416
-0.00828244
0.0232596
-0.00789492
0.0238473
-0.00749219
0.0244038
-0.00708528
0.0249288
-0.006674
0.0254203
-0.00630629
0.0258797
-0.00590562
0.0263067
-0.00549884
0.0267012
-0.00508869
0.027063
-0.00467514
0.0273916
-0.00430595
0.0276875
-0.00389604
0.0279508
-0.00348294
0.0281815
-0.00306823
0.0283797
-0.00265228
0.0285459
-0.002249
0.0286804
-0.00180954
0.0287835
-0.00139091
0.0288555
-0.00101082
0.0288972
-0.000668658
-0.000363535
0.0289096
0.00643971
-0.0202479
-0.00538229
0.00748864
-0.0192597
0.00852889
-0.0182156
0.00955694
-0.0172178
0.0105725
-0.0164925
0.0115747
-0.0158388
0.0125596
-0.0151153
0.0135302
-0.0146515
0.0144818
-0.0140439
0.0154137
-0.0135187
0.0163271
-0.0130654
0.0172187
-0.0125646
0.0180856
-0.012069
0.0189297
-0.0116286
0.0197498
-0.0111754
0.0205416
-0.0107114
0.0213052
-0.0102738
0.0220412
-0.0098362
0.0227482
-0.00939201
0.0234238
-0.00895804
0.0240673
-0.00853846
0.0246796
-0.00810443
0.0252598
-0.0076655
0.0258074
-0.0072216
0.0263204
-0.00681933
0.0268002
-0.00638536
0.0272463
-0.00594502
0.0276587
-0.00550101
0.0280369
-0.00505337
0.0283805
-0.00464957
0.02869
-0.00420557
0.0289654
-0.00375833
0.0292066
-0.00330946
0.0294138
-0.00285944
0.0295873
-0.00242255
0.0297277
-0.00194993
0.0298351
-0.00149831
0.0299101
-0.00108576
0.0299534
-0.000711964
-0.00037642
0.0299663
0.00660883
-0.0213462
-0.00551058
0.00769819
-0.0203491
0.00877834
-0.0192958
0.0098458
-0.0182853
0.0109001
-0.0175468
0.0119402
-0.0168789
0.0129626
-0.0161376
0.0139697
-0.0156586
0.014957
-0.0150312
0.0159239
-0.0144857
0.0168714
-0.0140128
0.0177963
-0.0134896
0.0186959
-0.0129686
0.0195718
-0.0125045
0.0204228
-0.0120264
0.0212449
-0.0115335
0.0220382
-0.0110671
0.0228029
-0.0106009
0.0235378
-0.010127
0.0242406
-0.00966078
0.0249104
-0.00920827
0.0255479
-0.00874196
0.0261524
-0.00827
0.0267232
-0.0077924
0.0272584
-0.00735446
0.027759
-0.00688597
0.0282247
-0.00641079
0.0286553
-0.00593159
0.0290504
-0.00544846
0.0294094
-0.00500857
0.0297328
-0.00452899
0.0300206
-0.00404607
0.0302726
-0.00356149
0.030489
-0.00307583
0.0306701
-0.00260371
0.0308165
-0.00209633
0.0309284
-0.0016102
0.0310064
-0.00116372
0.0310514
-0.000756944
-0.000389821
0.0310648
0.00678272
-0.0224872
-0.00564171
0.00791441
-0.0214808
0.00903639
-0.0204177
0.0101452
-0.0193941
0.0112401
-0.0186418
0.0123201
-0.0179589
0.0133817
-0.0171992
0.0144271
-0.016704
0.0154519
-0.0160561
0.0164556
-0.0154893
0.0174389
-0.0149961
0.0183988
-0.0144495
0.0193326
-0.0139024
0.0202418
-0.0134138
0.0211252
-0.0129098
0.021979
-0.0123873
0.0228031
-0.0118912
0.0235977
-0.0113955
0.0243616
-0.0108909
0.0250924
-0.0103916
0.0257894
-0.00990523
0.026453
-0.0094056
0.0270825
-0.00889952
0.0276772
-0.00838709
0.028235
-0.00791229
0.0287571
-0.00740801
0.0292429
-0.00689667
0.0296922
-0.0063809
0.0301047
-0.00586087
0.0304794
-0.00538336
0.0308171
-0.00486668
0.0311176
-0.00434651
0.0313807
-0.00382463
0.0316066
-0.0033017
0.0317956
-0.00279269
0.0319482
-0.00224892
0.0320647
-0.0017267
0.0321457
-0.00124478
0.0321924
-0.000803655
-0.000403769
0.0322064
0.00696118
-0.0236729
-0.00577544
0.00813716
-0.0226568
0.0093029
-0.0215835
0.0104549
-0.0205461
0.0115924
-0.0197793
0.0127142
-0.0190807
0.0138168
-0.0183018
0.0149024
-0.0177895
0.0159666
-0.0171203
0.0170088
-0.0165315
0.0180297
-0.016017
0.0190263
-0.0154461
0.0199959
-0.014872
0.02094
-0.0143579
0.0218572
-0.0138271
0.022744
-0.0132741
0.0236002
-0.0127474
0.0244259
-0.0122211
0.0252199
-0.0116849
0.0259799
-0.0111515
0.0267049
-0.0106303
0.0273955
-0.0100962
0.0280509
-0.00955486
0.0286702
-0.00900639
0.0292514
-0.0084935
0.0297955
-0.00795212
0.0303021
-0.00740325
0.0307706
-0.00684949
0.0312008
-0.00629108
0.0315919
-0.00577441
0.0319443
-0.00521904
0.0322578
-0.00466003
0.0325323
-0.0040992
0.032768
-0.00353733
0.032965
-0.00298973
0.033124
-0.00240789
0.0332452
-0.00184795
0.0333295
-0.00132904
0.033378
-0.00085214
-0.000418259
0.0333925
0.00714408
-0.0249054
-0.00591162
0.00836633
-0.023879
0.0095778
-0.022795
0.010775
-0.0217432
0.0119569
-0.0209612
0.0131224
-0.0202462
0.0142681
-0.0194475
0.0153957
-0.0189171
0.0165012
-0.0182258
0.0175837
-0.0176141
0.0186438
-0.0170771
0.0196788
-0.0164811
0.0206859
-0.0158791
0.0216664
-0.0153384
0.0226191
-0.0147798
0.0235404
-0.0141953
0.02443
-0.013637
0.0252881
-0.0130792
0.0261134
-0.0125102
0.0269036
-0.0119417
0.0276578
-0.0113845
0.0283763
-0.0108148
0.0290584
-0.0102369
0.0297031
-0.00965114
0.0303085
-0.00909887
0.0308753
-0.00851899
0.0314032
-0.00793116
0.0318917
-0.00733793
0.0323402
-0.00673963
0.032748
-0.00618221
0.0331155
-0.00558653
0.0334425
-0.004987
0.0337288
-0.00438554
0.0339745
-0.00378303
0.0341799
-0.00319509
0.0343454
-0.00257345
0.0344716
-0.00197411
0.0345591
-0.00141659
0.0346094
-0.000902417
-0.000433247
0.0346244
0.00733138
-0.0261866
-0.00605015
0.00860193
-0.0251496
0.00986113
-0.0240542
0.0111055
-0.0229876
0.0123339
-0.0221897
0.013545
-0.0214573
0.0147356
-0.0206381
0.0159071
-0.0200887
0.0170557
-0.0193744
0.0181804
-0.0187388
0.0192817
-0.0181783
0.0203568
-0.0175562
0.021403
-0.0169254
0.0224216
-0.016357
0.0234113
-0.0157694
0.0243685
-0.0151526
0.025293
-0.0145616
0.0261848
-0.013971
0.0270427
-0.0133681
0.0278643
-0.0127633
0.0286487
-0.0121689
0.0293962
-0.0115623
0.0301059
-0.0109466
0.030777
-0.0103222
0.0314073
-0.0097292
0.0319977
-0.00910938
0.0325477
-0.0084811
0.0330566
-0.00784688
0.0335241
-0.00720711
0.0339492
-0.00660729
0.0343322
-0.00596963
0.0346731
-0.00532789
0.0349716
-0.00468405
0.0352277
-0.00403913
0.0354417
-0.00340903
0.035614
-0.00274581
0.0357452
-0.00210531
0.0358361
-0.0015075
0.0358882
-0.00095448
-0.000448639
0.0359036
0.0075231
-0.0275187
-0.00619102
0.00884401
-0.0264705
0.010153
-0.0253632
0.0114465
-0.0242811
0.0127234
-0.0234666
0.0139822
-0.0227161
0.0152197
-0.0218755
0.0164371
-0.0213061
0.0176306
-0.020568
0.0187994
-0.0199075
0.0199436
-0.0193225
0.0210606
-0.0186731
0.0221477
-0.0180125
0.0232061
-0.0174154
0.0242343
-0.0167976
0.025229
-0.0161473
0.0261899
-0.0155225
0.0271168
-0.0148979
0.0280085
-0.0142599
0.0288628
-0.0136176
0.0296786
-0.0129847
0.0304562
-0.0123399
0.0311946
-0.011685
0.031893
-0.0110206
0.0325491
-0.0103854
0.0331639
-0.00972412
0.0337366
-0.00905384
0.0342667
-0.00837703
0.0347538
-0.00769415
0.0351967
-0.00705023
0.035596
-0.00636886
0.0359512
-0.00568314
0.0362623
-0.00499513
0.0365291
-0.00430598
0.036752
-0.00363187
0.0369314
-0.00292519
0.0370677
-0.0022417
0.0371621
-0.00160182
0.0372159
-0.0010083
-0.000464293
0.0372315
0.00771935
-0.0289038
-0.00633426
0.00909274
-0.0278439
0.0104536
-0.026724
0.0117984
-0.0256259
0.0131258
-0.024794
0.0144343
-0.0240246
0.0157206
-0.0231619
0.0169859
-0.0225714
0.0182264
-0.0218085
0.0194411
-0.0211222
0.0206301
-0.0205116
0.0217908
-0.0198339
0.0229206
-0.0191424
0.0240204
-0.0185152
0.0250889
-0.0178661
0.0261227
-0.0171811
0.0271214
-0.0165212
0.0280849
-0.0158614
0.0290119
-0.0151869
0.0299001
-0.0145058
0.0307486
-0.0138332
0.0315574
-0.0131487
0.0323255
-0.0124532
0.0330522
-0.0117472
0.0337352
-0.0110684
0.0343751
-0.0103641
0.0349714
-0.00965018
0.0355235
-0.00892912
0.0360308
-0.00820143
0.0364922
-0.00751166
0.0369082
-0.0067848
0.0372783
-0.00605327
0.0376024
-0.00531922
0.0378803
-0.00458394
0.0381124
-0.00386388
0.038299
-0.00311183
0.0384407
-0.00238344
0.0385385
-0.00169962
0.038594
-0.0010638
-0.000480011
0.0386097
0.00792031
-0.0303441
-0.00648002
0.00934836
-0.0292719
0.0107633
-0.028139
0.0121615
-0.0270241
0.0135415
-0.026174
0.0149017
-0.0253848
0.0162389
-0.0244991
0.0175541
-0.0238865
0.0188435
-0.0230979
0.0201061
-0.0223847
0.0213418
-0.0217473
0.0225481
-0.0210402
0.0237224
-0.0203167
0.0248654
-0.0196582
0.0259758
-0.0189765
0.0270503
-0.0182556
0.0280885
-0.0175594
0.0290901
-0.016863
0.0300538
-0.0161506
0.0309773
-0.0154294
0.0318597
-0.0147155
0.0327009
-0.0139899
0.0335
-0.0132523
0.034256
-0.0125032
0.0349667
-0.0117791
0.0356328
-0.0110302
0.0362536
-0.010271
0.0368284
-0.00950394
0.0373567
-0.00872968
0.0378372
-0.00799224
0.0382705
-0.00721802
0.038656
-0.00643879
0.0389935
-0.00565679
0.039283
-0.00487342
0.0395246
-0.00410542
0.0397187
-0.00330596
0.0398659
-0.00253067
0.0399672
-0.00180092
0.0400243
-0.0011209
-0.000495543
0.0400399
0.00812626
-0.0318419
-0.0066285
0.0096112
-0.0307569
0.0110823
-0.0296101
0.0125361
-0.0284779
0.0139709
-0.0276087
0.0153849
-0.0267989
0.0167752
-0.0258894
0.0181423
-0.0252537
0.0194827
-0.0244383
0.0207951
-0.0236972
0.0220795
-0.0230317
0.0233333
-0.022294
0.024554
-0.0215373
0.025742
-0.0208463
0.0268961
-0.0201305
0.028013
-0.0193725
0.0290923
-0.0186387
0.0301335
-0.0179042
0.0311354
-0.0171525
0.0320956
-0.0163897
0.0330132
-0.0156332
0.0338881
-0.0148648
0.0347193
-0.0140835
0.0355058
-0.0132897
0.0362453
-0.0125187
0.0369385
-0.0117234
0.0375847
-0.0109171
0.038183
-0.0101023
0.038733
-0.00927965
0.0392334
-0.00849265
0.0396845
-0.00766915
0.040086
-0.00684027
0.0404376
-0.00600831
0.040739
-0.00517484
0.0409903
-0.00435679
0.0411922
-0.00350785
0.0413451
-0.00268353
0.0414499
-0.00190576
0.0415085
-0.00117948
-0.000510607
0.0415236
0.00833756
-0.0333995
-0.00678
0.0098817
-0.032301
0.0114114
-0.0311398
0.0129229
-0.0299894
0.0144146
-0.0291004
0.0158848
-0.028269
0.0173302
-0.0273349
0.0187514
-0.0266749
0.0201448
-0.0258317
0.0215091
-0.0250615
0.0228442
-0.0243668
0.0241475
-0.0235972
0.0254163
-0.0228062
0.0266513
-0.0220812
0.0278508
-0.0213301
0.0290119
-0.0205336
0.0301339
-0.0197606
0.0312163
-0.0189866
0.0322579
-0.0181941
0.0332563
-0.0173881
0.0342106
-0.0165874
0.0351205
-0.0157747
0.035985
-0.014948
0.0368031
-0.0141078
0.0375725
-0.0132881
0.0382938
-0.0124447
0.0389663
-0.0115895
0.039589
-0.0107251
0.0401615
-0.00985213
0.0406825
-0.00901362
0.0411522
-0.00813886
0.0415702
-0.00725829
0.0419362
-0.00637431
0.04225
-0.0054886
0.0425116
-0.00461836
0.0427215
-0.00371772
0.0428801
-0.00284218
0.0429885
-0.00201416
0.0430484
-0.00123941
-0.00052485
0.0430627
0.00855469
-0.0350192
-0.00693492
0.0101604
-0.0339067
0.0117509
-0.0327303
0.0133225
-0.0315611
0.0148735
-0.0306514
0.016402
-0.0297975
0.0179048
-0.0288377
0.0193822
-0.0281523
0.0208307
-0.0272803
0.0222491
-0.0264799
0.0236369
-0.0257546
0.0249916
-0.0249519
0.0263106
-0.0241252
0.0275943
-0.0233649
0.0288412
-0.022577
0.0300482
-0.0217406
0.0312146
-0.020927
0.0323399
-0.0201119
0.0334228
-0.019277
0.034461
-0.0184263
0.0354532
-0.0175797
0.0363995
-0.016721
0.0372986
-0.0158471
0.0381495
-0.0149587
0.03895
-0.0140887
0.0397005
-0.0131951
0.0404002
-0.0122892
0.0410483
-0.0113732
0.0416441
-0.010448
0.0421864
-0.00955591
0.0426754
-0.00862782
0.0431105
-0.00769345
0.0434915
-0.0067553
0.0438181
-0.00581519
0.0440903
-0.00489049
0.0443084
-0.00393588
0.044473
-0.00300677
0.044585