/*--------------------------------*- C++ -*----------------------------------*\
| =========                 |                                                 |
| \\      /  F ield         | OpenFOAM: The Open Source CFD Toolbox           |
|  \\    /   O peration     | Version:  3.0.1                                 |
|   \\  /    A nd           | Web:      www.OpenFOAM.org                      |
|    \\/     M anipulation  |                                                 |
\*---------------------------------------------------------------------------*/
FoamFile
{
    version     2.0;
    format      ascii;
    class       volVectorField;
    location    "150";
    object      U;
}
// * * * * * * * * * * * * * * * * * * * * * * * * * * * * * * * * * * * * * //

dimensions      [0 1 -1 0 0 0 0];

internalField   nonuniform List<vector> 
58000
(
(0.351321 0.861743 -3.91158e-21)
(0.459269 1.01547 4.47642e-21)
(0.584209 1.09007 6.40391e-21)
(0.704927 1.09957 -1.54887e-20)
(0.805983 1.06126 -3.06905e-20)
(0.887929 0.997765 0)
(0.95439 0.927753 -2.21408e-20)
(1.00706 0.855736 -1.29641e-21)
(1.05138 0.786475 2.50226e-20)
(1.08775 0.724653 0)
(1.11758 0.668774 2.78765e-20)
(1.14295 0.618984 2.56508e-20)
(1.1633 0.57662 -8.5815e-20)
(1.17807 0.540059 3.055e-20)
(1.1892 0.507313 2.66268e-20)
(1.19785 0.478325 5.596e-20)
(1.20392 0.452843 -8.18051e-20)
(1.2082 0.429773 0)
(1.21126 0.408134 5.37027e-20)
(1.21335 0.387708 -8.05491e-20)
(1.21448 0.368876 3.04473e-22)
(1.21466 0.351296 2.67088e-20)
(1.21442 0.334464 1.265e-20)
(1.21338 0.317876 0)
(1.21212 0.302097 2.41255e-20)
(1.20999 0.287312 -1.20511e-20)
(1.20757 0.273123 0)
(1.20494 0.259341 3.53795e-22)
(1.20174 0.245695 0)
(1.19852 0.232674 -1.13783e-20)
(1.19477 0.22041 5.58592e-20)
(1.19093 0.208544 -5.54891e-20)
(1.18705 0.196929 -3.29672e-20)
(1.18298 0.185417 8.62142e-20)
(1.1787 0.17405 -2.14555e-20)
(1.17254 0.162816 -1.07016e-20)
(1.16302 0.15214 1.57748e-20)
(1.15317 0.142878 -1.01538e-20)
(1.14466 0.135084 1.51061e-20)
(1.14448 0.129855 0)
(0.520335 0.544408 -9.3789e-21)
(0.595323 0.6249 0)
(0.682215 0.691651 -2.1603e-23)
(0.770986 0.742495 2.25996e-23)
(0.85956 0.779578 1.47578e-20)
(0.944813 0.797444 1.13476e-20)
(1.01972 0.797081 -2.596e-20)
(1.08457 0.782503 8.19686e-21)
(1.13832 0.756561 4.50391e-20)
(1.17954 0.724514 -2.50253e-20)
(1.21141 0.688216 0)
(1.23459 0.649422 -5.10112e-20)
(1.25055 0.612593 3.32148e-20)
(1.26201 0.577933 1.91201e-20)
(1.27032 0.544115 -1.9393e-20)
(1.27592 0.512743 0)
(1.27951 0.484603 1.96008e-20)
(1.28177 0.458398 0)
(1.28304 0.43334 7.47459e-20)
(1.28346 0.409898 -1.12306e-19)
(1.28322 0.388618 0)
(1.2825 0.368712 9.28792e-20)
(1.28136 0.349482 -7.34923e-20)
(1.27975 0.33074 0)
(1.27779 0.313288 -2.70383e-20)
(1.27558 0.297146 0)
(1.27307 0.281512 0)
(1.27028 0.266223 2.62485e-20)
(1.26713 0.251207 0)
(1.26379 0.237064 -2.56834e-20)
(1.26035 0.223807 3.39118e-20)
(1.25671 0.210851 -3.33531e-20)
(1.25283 0.198068 2.47225e-20)
(1.24864 0.185391 -1.65613e-20)
(1.24418 0.173029 0)
(1.23918 0.161192 -2.4363e-20)
(1.23414 0.150558 1.60282e-20)
(1.22921 0.141431 0)
(1.22501 0.133258 -3.98681e-21)
(1.22186 0.126134 7.85526e-21)
(0.579009 0.489541 4.26876e-21)
(0.61024 0.549675 -1.89168e-21)
(0.652836 0.606016 -4.82458e-21)
(0.705935 0.653794 -8.6716e-23)
(0.766247 0.690153 9.13363e-23)
(0.83082 0.715245 -4.88305e-21)
(0.893997 0.728083 8.31485e-21)
(0.955427 0.729794 0)
(1.01252 0.721901 -1.462e-20)
(1.06203 0.705986 1.36042e-20)
(1.1057 0.683642 1.88139e-20)
(1.14308 0.656763 -1.0917e-21)
(1.17275 0.62796 0)
(1.19646 0.598135 4.4961e-20)
(1.21578 0.567695 -2.38209e-20)
(1.23055 0.538419 0)
(1.24145 0.51101 0)
(1.24974 0.484829 0)
(1.25609 0.45964 -1.26993e-20)
(1.26067 0.435973 1.37646e-20)
(1.26373 0.414132 0)
(1.26569 0.393485 1.29821e-20)
(1.26685 0.373601 0)
(1.26733 0.354414 0)
(1.2671 0.3365 2.66781e-20)
(1.2663 0.3197 -5.3129e-20)
(1.26505 0.303411 5.31391e-20)
(1.26341 0.287593 1.29031e-20)
(1.26141 0.272208 -2.6271e-20)
(1.25907 0.257685 -1.93214e-20)
(1.25644 0.24392 0)
(1.25352 0.23047 1.25099e-20)
(1.25035 0.217321 0)
(1.2469 0.204467 2.47293e-22)
(1.24319 0.192129 -1.86169e-20)
(1.2392 0.180365 1.25068e-20)
(1.23491 0.169137 0)
(1.23055 0.158503 0)
(1.22641 0.148225 -3.02332e-21)
(1.22252 0.137856 -3.22358e-21)
(0.65008 0.445299 4.17708e-21)
(0.670129 0.48776 1.29007e-21)
(0.6954 0.52983 -5.7946e-23)
(0.7275 0.569099 2.48216e-23)
(0.766327 0.602696 -1.32069e-21)
(0.811241 0.629517 0)
(0.858848 0.647655 -1.83958e-21)
(0.907907 0.657634 0)
(0.956633 0.659629 -7.34421e-21)
(1.0018 0.654295 -2.44569e-21)
(1.04394 0.642798 -1.10571e-20)
(1.0822 0.626182 1.04611e-20)
(1.11463 0.606212 -1.46564e-20)
(1.14213 0.583838 -3.11305e-20)
(1.16585 0.559485 -1.71993e-20)
(1.18514 0.534706 1.73063e-20)
(1.20033 0.510476 -1.68385e-20)
(1.2126 0.486586 0)
(1.22257 0.462996 -8.15478e-21)
(1.23034 0.440345 -3.85554e-20)
(1.23613 0.419098 3.87266e-20)
(1.24048 0.398809 -1.01981e-20)
(1.24374 0.379111 0)
(1.24604 0.359971 0)
(1.24739 0.341977 2.95949e-20)
(1.24798 0.325048 -3.98352e-20)
(1.24796 0.308618 3.98028e-20)
(1.2474 0.292624 -1.20126e-22)
(1.24635 0.277034 -7.92779e-20)
(1.24485 0.262264 4.98042e-20)
(1.243 0.248258 -1.95805e-20)
(1.24079 0.234594 -9.93943e-21)
(1.23824 0.221242 3.89561e-20)
(1.23537 0.208192 -1.44443e-20)
(1.23222 0.19564 4.93559e-21)
(1.22886 0.183656 -4.68503e-21)
(1.22529 0.172102 -4.6599e-21)
(1.22159 0.160957 0)
(1.21788 0.150176 2.33125e-21)
(1.21418 0.139701 -2.45364e-21)
(0.694532 0.419011 -1.99152e-21)
(0.70852 0.451435 -3.70408e-21)
(0.725654 0.48427 9.96288e-22)
(0.747269 0.516282 1.95325e-21)
(0.774045 0.545622 -2.49537e-22)
(0.806278 0.571326 0)
(0.842219 0.591153 6.78019e-22)
(0.881033 0.605053 7.61734e-22)
(0.921429 0.612669 0)
(0.960717 0.613767 4.30899e-21)
(0.999012 0.609206 5.6149e-21)
(1.03534 0.599618 0)
(1.06756 0.586029 -9.83688e-21)
(1.09611 0.569323 1.08965e-20)
(1.12175 0.550046 0)
(1.14351 0.529434 -2.28204e-20)
(1.16139 0.508405 6.37227e-20)
(1.17641 0.487018 8.08203e-22)
(1.1891 0.465406 -1.26912e-20)
(1.19939 0.444233 0)
(1.20744 0.424004 0)
(1.21383 0.404425 0)
(1.21894 0.385249 1.44739e-20)
(1.22291 0.366509 0)
(1.22571 0.348771 0)
(1.22755 0.331968 0)
(1.22867 0.315601 2.32645e-20)
(1.22915 0.299635 -3.08667e-20)
(1.22904 0.284058 3.82478e-20)
(1.22837 0.269264 -2.3347e-20)
(1.22723 0.255187 0)
(1.22567 0.241439 0)
(1.22373 0.228004 -7.77593e-21)
(1.22144 0.214881 2.29672e-20)
(1.21882 0.202253 -9.27245e-23)
(1.21597 0.190164 -1.87657e-20)
(1.2129 0.178435 1.13489e-20)
(1.20962 0.16701 0)
(1.20617 0.155889 0)
(1.20252 0.145098 -3.80296e-21)
(0.730652 0.399921 0)
(0.741371 0.425399 2.46512e-21)
(0.753881 0.451443 3.90068e-21)
(0.769326 0.477432 -3.09336e-21)
(0.788564 0.502225 3.43522e-22)
(0.812228 0.525232 -9.59234e-22)
(0.839567 0.54446 2.95902e-22)
(0.870101 0.559651 1.94204e-21)
(0.903092 0.570152 8.60158e-22)
(0.93643 0.575252 -5.94721e-21)
(0.97005 0.575502 -1.52888e-22)
(1.00307 0.571151 -1.52374e-20)
(1.03346 0.562665 2.37447e-20)
(1.0613 0.550796 -1.29452e-20)
(1.08711 0.536057 1.5966e-20)
(1.10975 0.519368 -1.52151e-20)
(1.12898 0.501567 0)
(1.14563 0.48287 0)
(1.16008 0.463486 0)
(1.17215 0.444058 0)
(1.1819 0.425129 -1.16062e-20)
(1.18989 0.406545 -1.11692e-20)
(1.19649 0.388149 3.40389e-20)
(1.20184 0.370013 -2.32145e-20)
(1.20587 0.352691 0)
(1.20881 0.336165 1.15742e-20)
(1.21092 0.320002 -1.78893e-20)
(1.2123 0.304182 2.4226e-20)
(1.21301 0.288705 -4.23045e-20)
(1.21305 0.273948 1.21761e-20)
(1.21255 0.259861 -2.4252e-20)
(1.21158 0.246087 2.43334e-20)
(1.21017 0.232613 -3.03078e-22)
(1.20836 0.219437 6.20471e-21)
(1.20619 0.206729 0)
(1.20375 0.194529 0)
(1.20105 0.182656 -5.96797e-21)
(1.19809 0.171055 5.98025e-21)
(1.19489 0.159755 0)
(1.19143 0.148827 -2.90899e-21)
(0.758745 0.385717 8.9907e-22)
(0.767614 0.406391 -1.21452e-21)
(0.777562 0.427552 -5.75746e-22)
(0.789455 0.448874 1.00853e-21)
(0.804073 0.469664 2.04196e-21)
(0.8221 0.489639 9.89723e-22)
(0.843309 0.507216 -2.11796e-22)
(0.867518 0.522136 -4.53859e-22)
(0.894397 0.533698 0)
(0.922393 0.540983 0)
(0.951416 0.544309 2.29899e-21)
(0.980745 0.543659 0)
(1.0086 0.539073 0)
(1.03485 0.531128 -1.01712e-20)
(1.05981 0.520268 5.2892e-21)
(1.08233 0.507115 -1.19448e-20)
(1.10201 0.492376 6.66806e-21)
(1.11947 0.476349 0)
(1.13496 0.459279 7.3339e-21)
(1.14821 0.441757 8.72229e-21)
(1.1592 0.424325 -1.74129e-20)
(1.16842 0.406941 2.67272e-20)
(1.17621 0.389524 3.08324e-22)
(1.18269 0.372184 -1.81976e-20)
(1.18777 0.355457 9.75492e-21)
(1.19166 0.339366 -1.88205e-20)
(1.19464 0.323548 -1.91098e-20)
(1.19682 0.307997 -9.40774e-21)
(1.19826 0.29273 1.00089e-20)
(1.19896 0.278112 -2.40602e-20)
(1.19904 0.264103 3.90971e-20)
(1.1986 0.250378 -3.82566e-23)
(1.19767 0.23693 -3.9269e-20)
(1.1963 0.223758 5.02984e-21)
(1.19453 0.211025 0)
(1.19243 0.198767 1.44825e-20)
(1.19004 0.186812 -4.99637e-21)
(1.18735 0.175107 0)
(1.18437 0.163696 2.39826e-21)
(1.18108 0.152659 2.64425e-21)
(0.781626 0.374659 -8.69598e-22)
(0.789298 0.391837 4.03147e-22)
(0.797657 0.409388 1.58938e-22)
(0.807359 0.427129 8.20964e-24)
(0.819057 0.444626 -5.63194e-23)
(0.833358 0.461777 -1.35876e-21)
(0.850276 0.477377 1.56808e-22)
(0.869794 0.49124 4.52957e-22)
(0.891842 0.502746 -4.75848e-22)
(0.915326 0.510951 0)
(0.940198 0.51603 1.1856e-21)
(0.965918 0.517807 -5.1113e-21)
(0.990992 0.516041 2.62408e-21)
(1.01519 0.511141 -1.06219e-20)
(1.03871 0.503451 1.29005e-20)
(1.06047 0.493339 -1.33676e-20)
(1.07994 0.481369 1.51693e-20)
(1.09757 0.467861 0)
(1.11353 0.453059 -6.26082e-21)
(1.12748 0.437481 6.62656e-21)
(1.13929 0.421641 -6.9347e-21)
(1.1494 0.405582 1.39192e-20)
(1.1581 0.389284 -2.84743e-20)
(1.16549 0.372881 1.44691e-20)
(1.17143 0.356883 7.78549e-21)
(1.17612 0.341354 7.88379e-21)
(1.17987 0.325995 -1.55283e-20)
(1.18275 0.31082 3.13391e-20)
(1.18484 0.295858 0)
(1.18613 0.281458 2.41557e-20)
(1.18673 0.267601 -2.37112e-20)
(1.18678 0.25399 1.60132e-20)
(1.18629 0.240623 -1.19504e-20)
(1.18532 0.227505 4.12125e-21)
(1.18391 0.21479 3.91585e-21)
(1.18212 0.202517 -1.99337e-22)
(1.18001 0.190524 -4.09754e-21)
(1.17755 0.178764 0)
(1.17478 0.167289 -1.97529e-21)
(1.17166 0.156183 2.08722e-21)
(0.800566 0.365772 0)
(0.807431 0.38033 0)
(0.814754 0.395156 -2.65328e-21)
(0.823043 0.41014 1.26646e-21)
(0.832829 0.424996 -4.46337e-22)
(0.844625 0.439719 1.55312e-21)
(0.858536 0.453395 -4.56464e-22)
(0.874624 0.465913 0)
(0.892962 0.476772 0)
(0.91279 0.485105 -1.99492e-21)
(0.934108 0.49101 -3.481e-21)
(0.956549 0.494238 -1.4481e-22)
(0.978898 0.49439 6.95418e-21)
(1.0009 0.491734 -1.24245e-21)
(1.02269 0.486521 -4.80205e-21)
(1.04326 0.478918 0)
(1.06208 0.469344 0)
(1.07943 0.458105 0)
(1.09542 0.445422 0)
(1.10965 0.431728 -1.01408e-20)
(1.12193 0.417492 1.02807e-20)
(1.13263 0.402811 1.64183e-20)
(1.14198 0.387711 -2.28669e-20)
(1.15005 0.372338 5.96666e-21)
(1.15668 0.357171 0)
(1.16204 0.342307 -1.24799e-20)
(1.16643 0.327507 1.257e-20)
(1.16992 0.312799 -6.64209e-21)
(1.17258 0.298227 0)
(1.1744 0.284124 -6.77098e-21)
(1.17548 0.27049 6.75511e-21)
(1.17597 0.257057 2.6503e-20)
(1.17589 0.24383 -2.66196e-20)
(1.17528 0.230818 1.33256e-20)
(1.1742 0.21817 -3.42376e-21)
(1.1727 0.205928 -1.65595e-20)
(1.17084 0.193941 6.66073e-21)
(1.1686 0.182169 3.30774e-21)
(1.16602 0.170669 -4.95603e-21)
(1.16306 0.159521 1.73187e-21)
(0.816532 0.358435 0)
(0.822817 0.370974 0)
(0.829424 0.383696 1.52786e-21)
(0.836754 0.396529 -1.41738e-21)
(0.845241 0.409276 -6.14765e-23)
(0.855307 0.421977 -7.03812e-22)
(0.867083 0.433931 5.24583e-22)
(0.880663 0.445085 -1.80818e-22)
(0.896182 0.455046 7.53708e-22)
(0.913111 0.463064 -1.45678e-21)
(0.931494 0.469197 -1.60284e-22)
(0.95109 0.473183 -7.92396e-23)
(0.970937 0.474555 2.37709e-21)
(0.990794 0.473475 4.14639e-21)
(1.01076 0.470117 5.55919e-21)
(1.02995 0.464504 1.11544e-23)
(1.04783 0.456925 -5.76667e-21)
(1.06459 0.447651 0)
(1.08027 0.436867 -7.00292e-21)
(1.09446 0.424923 7.57911e-21)
(1.10692 0.412229 -8.61743e-21)
(1.11793 0.398915 4.56611e-21)
(1.1277 0.385032 2.92647e-22)
(1.13625 0.370733 5.26923e-21)
(1.1434 0.356458 -9.87852e-21)
(1.14929 0.34233 0)
(1.15421 0.32816 1.55754e-20)
(1.15822 0.313993 -2.64617e-20)
(1.16137 0.299881 2.15494e-20)
(1.16365 0.286143 -1.6545e-20)
(1.16517 0.272794 -1.10154e-20)
(1.16605 0.259598 1.10649e-20)
(1.16634 0.246565 1.11466e-20)
(1.16607 0.233709 -1.1163e-20)
(1.16529 0.221174 5.58855e-21)
(1.16406 0.209005 1.46453e-22)
(1.16243 0.197065 0)
(1.1604 0.185321 0)
(1.15799 0.173829 2.70984e-21)
(1.15519 0.162669 0)
(0.830184 0.352235 7.20028e-22)
(0.836031 0.363183 1.57466e-22)
(0.842119 0.374248 -1.61107e-22)
(0.848767 0.385379 4.22464e-24)
(0.856336 0.396432 0)
(0.865172 0.407468 5.07829e-22)
(0.875402 0.417939 -4.66939e-23)
(0.887128 0.427828 4.76673e-23)
(0.900506 0.436831 5.76486e-22)
(0.91516 0.444316 -6.84155e-22)
(0.93116 0.450326 1.48749e-21)
(0.948358 0.454613 0)
(0.965998 0.456699 -2.28279e-21)
(0.983872 0.456674 9.03392e-22)
(1.00206 0.454656 7.85174e-21)
(1.01981 0.450568 -8.54615e-21)
(1.03661 0.444598 1.47958e-20)
(1.05259 0.436971 -5.15524e-21)
(1.06773 0.427836 6.23531e-21)
(1.08163 0.417462 -6.75034e-21)
(1.09403 0.406197 0)
(1.10514 0.394186 7.60364e-21)
(1.11513 0.381493 7.36653e-21)
(1.12397 0.368267 0)
(1.13148 0.354908 0)
(1.13778 0.341555 8.22148e-21)
(1.14311 0.328064 4.26991e-21)
(1.14754 0.314488 -4.23957e-21)
(1.15111 0.30089 8.77674e-21)
(1.15378 0.287571 1.36971e-20)
(1.15567 0.27456 -9.23637e-21)
(1.15691 0.261652 0)
(1.15753 0.24886 -9.42269e-21)
(1.15757 0.236206 9.43673e-21)
(1.15707 0.223827 4.73389e-21)
(1.15609 0.211773 -8.95789e-24)
(1.15467 0.199919 -4.7425e-21)
(1.15283 0.188237 0)
(1.1506 0.176786 -7.01592e-21)
(1.14795 0.165641 0)
(0.842 0.346884 -8.98066e-22)
(0.847502 0.356555 9.60697e-22)
(0.853196 0.36629 7.8743e-22)
(0.85934 0.376054 -7.68257e-22)
(0.866234 0.385736 -6.02551e-22)
(0.874166 0.395402 -4.65941e-22)
(0.883251 0.404615 -1.99721e-22)
(0.893585 0.413381 -4.55094e-23)
(0.905323 0.421465 -4.94152e-23)
(0.918191 0.428336 6.64836e-22)
(0.932271 0.434034 -2.29265e-21)
(0.947479 0.438336 -3.97598e-22)
(0.963222 0.440789 6.04986e-21)
(0.979326 0.441435 -4.57649e-21)
(0.995864 0.440351 -3.17178e-21)
(1.01221 0.437403 3.99952e-21)
(1.02788 0.432699 -7.82295e-21)
(1.04296 0.426421 -4.17973e-21)
(1.05742 0.418678 1.00061e-20)
(1.07088 0.409674 -1.01794e-20)
(1.08305 0.399698 0)
(1.09408 0.388891 0)
(1.10411 0.377324 -5.06404e-22)
(1.11309 0.365137 0)
(1.12083 0.352686 0)
(1.1274 0.34012 -7.40645e-21)
(1.13304 0.32733 -7.11174e-21)
(1.1378 0.314377 -7.29605e-21)
(1.1417 0.301328 7.21252e-21)
(1.14471 0.288467 -4.21147e-21)
(1.14692 0.275837 -2.46569e-22)
(1.14847 0.263258 7.93135e-21)
(1.14938 0.250749 0)
(1.1497 0.238335 1.19737e-20)
(1.14944 0.226151 -8.08346e-21)
(1.14869 0.214249 -7.9864e-21)
(1.14748 0.202515 4.05103e-21)
(1.14582 0.19093 -2.01748e-21)
(1.14374 0.179548 6.15875e-21)
(1.14123 0.168445 0)
(0.852334 0.342176 5.57762e-22)
(0.857556 0.350805 -3.86253e-22)
(0.862936 0.359458 -1.99262e-22)
(0.868691 0.368109 6.45137e-22)
(0.875072 0.376669 6.34376e-22)
(0.882321 0.385204 -1.31297e-22)
(0.890535 0.393357 3.20239e-22)
(0.899804 0.401146 8.28845e-23)
(0.910269 0.408388 -5.88989e-22)
(0.921725 0.41464 -6.09695e-22)
(0.934259 0.419938 9.35223e-22)
(0.947827 0.42409 -1.39045e-21)
(0.961959 0.426682 2.96413e-21)
(0.976515 0.427727 2.10243e-21)
(0.991567 0.427275 4.78954e-21)
(1.00659 0.425159 2.87414e-22)
(1.02115 0.421432 -3.38807e-21)
(1.03531 0.416236 1.47832e-20)
(1.04902 0.40965 -1.97712e-20)
(1.06192 0.401818 1.74621e-20)
(1.07373 0.392976 -4.62269e-21)
(1.08456 0.383258 0)
(1.09449 0.372731 -4.18122e-22)
(1.10348 0.361523 0)
(1.11132 0.349949 0)
(1.11806 0.338159 0)
(1.12392 0.326072 4.21723e-22)
(1.12892 0.313754 1.9542e-20)
(1.13308 0.301274 -1.9699e-20)
(1.13636 0.288898 -1.85673e-22)
(1.13884 0.276678 -1.36578e-20)
(1.14065 0.26446 6.83622e-21)
(1.14182 0.252267 -6.66364e-21)
(1.14237 0.240127 -1.04652e-20)
(1.14235 0.228171 -3.38292e-21)
(1.1418 0.216453 6.9716e-21)
(1.14077 0.204871 0)
(1.13928 0.193411 -3.38885e-21)
(1.13735 0.182127 -4.2418e-21)
(1.13497 0.171091 8.88919e-22)
(0.861454 0.33796 4.74425e-22)
(0.866439 0.345725 0)
(0.871563 0.353485 -1.36986e-21)
(0.877006 0.361219 5.39425e-22)
(0.882983 0.368853 5.09219e-22)
(0.889698 0.376447 -9.30956e-23)
(0.897234 0.383707 0)
(0.905669 0.390656 -3.80404e-23)
(0.915131 0.397148 2.59108e-22)
(0.92546 0.402812 -5.98897e-22)
(0.936741 0.407684 -9.5408e-22)
(0.948956 0.411599 -2.69647e-22)
(0.961729 0.414186 -2.13261e-22)
(0.974949 0.415443 0)
(0.988685 0.415401 -6.33466e-21)
(1.0025 0.413882 6.81973e-21)
(1.01601 0.410899 0)
(1.02926 0.406561 -6.04973e-21)
(1.0422 0.40092 3.50241e-21)
(1.05448 0.394077 -7.5905e-21)
(1.06585 0.38622 3.54855e-21)
(1.07638 0.377468 0)
(1.08612 0.367884 4.52532e-21)
(1.09502 0.357582 -4.71311e-21)
(1.10286 0.346836 0)
(1.10968 0.335794 -1.04581e-20)
(1.11567 0.324397 1.0898e-20)
(1.12082 0.31271 5.75788e-21)
(1.12518 0.300804 -1.11148e-20)
(1.12867 0.288927 0)
(1.13137 0.277138 1.91513e-22)
(1.13339 0.265304 -1.15741e-20)
(1.13478 0.253452 6.12689e-21)
(1.13554 0.241612 0)
(1.13572 0.229912 3.09605e-21)
(1.13535 0.218405 -3.1015e-21)
(1.13449 0.207003 2.93433e-21)
(1.13315 0.195694 3.09885e-21)
(1.13136 0.184533 6.00828e-21)
(1.12911 0.173586 2.97006e-21)
(0.869567 0.334122 0)
(0.874345 0.341162 0)
(0.879251 0.348176 5.21216e-23)
(0.884437 0.355146 -9.62509e-22)
(0.890085 0.362007 -4.03507e-23)
(0.896371 0.368813 -2.35256e-22)
(0.903365 0.375318 0)
(0.911134 0.381546 0)
(0.919791 0.38738 3.10361e-22)
(0.929209 0.392506 -3.18694e-22)
(0.939467 0.396958 1.83799e-22)
(0.950561 0.400597 -7.51918e-22)
(0.962188 0.403095 0)
(0.974259 0.404439 0)
(0.986842 0.404651 3.196e-21)
(0.999567 0.403551 -3.77464e-21)
(1.01211 0.401128 4.23434e-22)
(1.02449 0.397464 3.1571e-21)
(1.03666 0.392591 -5.4095e-21)
(1.04831 0.386574 0)
(1.0592 0.379561 3.25786e-21)
(1.06936 0.371658 3.49379e-21)
(1.07884 0.362919 0)
(1.08757 0.353442 4.06514e-21)
(1.09534 0.343467 -8.40087e-21)
(1.10216 0.333133 0)
(1.1082 0.3224 4.76183e-21)
(1.11345 0.311329 -4.66787e-21)
(1.11793 0.299992 1.43047e-20)
(1.12157 0.288617 0)
(1.12444 0.27727 1.00869e-20)
(1.12665 0.265834 5.26734e-21)
(1.12821 0.254341 5.01993e-21)
(1.12915 0.242822 -5.20574e-21)
(1.1295 0.231399 5.22245e-21)
(1.12929 0.220127 0)
(1.12858 0.208928 -2.70117e-21)
(1.12739 0.197793 0)
(1.12572 0.186775 -2.68666e-21)
(1.12359 0.175936 -2.71242e-21)
(0.876833 0.330572 3.14089e-22)
(0.881428 0.337 -4.52904e-22)
(0.886144 0.343384 1.14377e-21)
(0.891109 0.34971 4.34238e-22)
(0.896482 0.35592 -3.33037e-22)
(0.902415 0.362062 2.95251e-22)
(0.908964 0.367926 -7.51492e-23)
(0.916189 0.373536 -8.90736e-23)
(0.924189 0.378795 -1.06179e-22)
(0.932858 0.383437 -2.80419e-22)
(0.942271 0.387494 8.12159e-23)
(0.952431 0.390847 1.68093e-21)
(0.963088 0.393208 -1.72796e-21)
(0.974172 0.394561 -2.98027e-22)
(0.985749 0.394919 -3.46769e-22)
(0.997506 0.39411 7.07931e-21)
(1.00916 0.392105 -3.67083e-21)
(1.02073 0.388968 4.12872e-21)
(1.03216 0.384714 -5.04214e-21)
(1.04319 0.379383 -1.46315e-23)
(1.05357 0.37309 -3.02155e-21)
(1.06333 0.365925 3.15659e-21)
(1.0725 0.357934 -5.18359e-23)
(1.08101 0.349202 0)
(1.08864 0.339936 0)
(1.0954 0.330266 -7.44432e-21)
(1.10143 0.320162 -3.86344e-21)
(1.10672 0.309684 -3.99127e-21)
(1.11127 0.298902 -2.67628e-22)
(1.11502 0.288027 -1.29072e-20)
(1.11802 0.277123 4.18908e-21)
(1.12036 0.266094 0)
(1.12206 0.254971 -9.17459e-21)
(1.12316 0.243787 8.9458e-21)
(1.12365 0.232658 0)
(1.12359 0.22164 4.58622e-21)
(1.12301 0.210663 -2.2959e-21)
(1.12194 0.199721 -4.5808e-21)
(1.1204 0.188863 3.42251e-21)
(1.11837 0.178148 -3.37075e-21)
(0.883383 0.327244 0)
(0.887811 0.333147 0)
(0.892355 0.338994 -8.76022e-22)
(0.897126 0.344773 0)
(0.902263 0.350431 0)
(0.907896 0.356009 6.05533e-23)
(0.914072 0.361325 -6.21232e-23)
(0.920844 0.366404 8.42583e-23)
(0.928298 0.371163 3.58564e-22)
(0.936344 0.375375 1.01475e-21)
(0.945049 0.379069 1.50335e-21)
(0.954422 0.382144 1.46198e-21)
(0.964254 0.384346 -1.27047e-21)
(0.974489 0.385659 1.97014e-22)
(0.985187 0.38609 -2.26992e-21)
(0.996085 0.385478 5.86824e-21)
(1.00694 0.383785 -3.13266e-21)
(1.01775 0.381059 3.61376e-21)
(1.02849 0.377305 0)
(1.03891 0.372542 9.56976e-21)
(1.04879 0.366859 -9.68616e-21)
(1.05813 0.360334 -5.20919e-21)
(1.06696 0.353004 -1.15535e-20)
(1.07521 0.344939 -3.29638e-22)
(1.08266 0.336319 -2.45306e-22)
(1.08932 0.327264 1.35176e-20)
(1.09529 0.317752 3.59966e-21)
(1.10057 0.30784 1.06915e-20)
(1.10515 0.297594 -1.09669e-20)
(1.10896 0.287206 3.91113e-21)
(1.11204 0.276743 7.74093e-21)
(1.11448 0.266122 -7.77189e-21)
(1.1163 0.255376 0)
(1.11751 0.244537 -4.11312e-21)
(1.11813 0.233714 0)
(1.11819 0.222964 1.11694e-22)
(1.11773 0.212224 -4.03031e-21)
(1.11678 0.201489 0)
(1.11535 0.190806 3.89304e-21)
(1.11343 0.180228 1.15091e-22)
(0.889319 0.324084 5.49945e-22)
(0.893591 0.329534 -1.04424e-22)
(0.897978 0.33492 1.38934e-22)
(0.902575 0.340229 -2.71347e-24)
(0.907503 0.345414 8.90545e-22)
(0.912875 0.350509 -5.04186e-23)
(0.918732 0.355357 4.61549e-23)
(0.92512 0.359977 9.86083e-23)
(0.932111 0.364302 2.20466e-22)
(0.939629 0.368133 -8.14443e-22)
(0.947734 0.371499 -8.69038e-22)
(0.956438 0.374312 0)
(0.965562 0.376349 2.9383e-21)
(0.975061 0.377593 8.4417e-23)
(0.984993 0.37805 -4.04758e-21)
(0.99513 0.377569 -2.62147e-21)
(1.00526 0.376109 2.7899e-21)
(1.01539 0.373705 3.17527e-21)
(1.02548 0.370354 -3.46553e-21)
(1.03532 0.366062 0)
(1.0447 0.360898 4.53917e-21)
(1.05363 0.354926 5.17179e-21)
(1.06211 0.348176 6.18412e-22)
(1.07006 0.340707 -1.58595e-20)
(1.07731 0.332674 -5.45075e-21)
(1.08382 0.324185 0)
(1.0897 0.315226 6.18464e-21)
(1.09493 0.305849 -1.27542e-20)
(1.0995 0.296114 6.69845e-21)
(1.10333 0.2862 -2.45756e-22)
(1.10646 0.276171 6.48699e-21)
(1.10898 0.265955 1.35383e-20)
(1.11088 0.255587 -3.39141e-21)
(1.11219 0.245097 0)
(1.11291 0.23459 -3.44573e-21)
(1.11307 0.224118 3.66452e-21)
(1.11272 0.213627 0)
(1.11186 0.203112 3.44902e-21)
(1.11054 0.192613 -4.5136e-21)
(1.10872 0.18218 2.66858e-21)
(0.894725 0.321049 0)
(0.898852 0.326106 0)
(0.903091 0.331091 -2.95836e-22)
(0.907528 0.335995 -2.38956e-24)
(0.912267 0.340772 -1.2407e-21)
(0.917409 0.345452 0)
(0.922986 0.349894 -8.05501e-23)
(0.92904 0.354118 -1.8171e-22)
(0.935633 0.358066 0)
(0.942697 0.361562 0)
(0.950288 0.364633 0)
(0.958416 0.367205 -1.13823e-21)
(0.966927 0.36908 1.07674e-21)
(0.975786 0.370241 -1.87241e-22)
(0.985044 0.370692 -1.48441e-22)
(0.994506 0.370297 -7.07167e-23)
(1.00399 0.369011 -1.83088e-22)
(1.01349 0.366861 -2.96751e-21)
(1.02299 0.363838 0)
(1.03228 0.359939 0)
(1.04119 0.355216 0)
(1.0497 0.349722 1.27694e-20)
(1.05782 0.343482 -8.27895e-21)
(1.06548 0.336545 9.62901e-21)
(1.07249 0.329042 2.82513e-22)
(1.07883 0.321074 -5.2523e-21)
(1.08459 0.312628 5.28939e-21)
(1.08974 0.303753 -5.63694e-21)
(1.09426 0.294505 1.12108e-20)
(1.09809 0.285046 -3.63825e-22)
(1.10125 0.275439 -6.18738e-21)
(1.10381 0.265624 -3.68529e-22)
(1.10577 0.255631 -2.81695e-21)
(1.10715 0.245493 6.24754e-21)
(1.10795 0.235305 1.17931e-22)
(1.1082 0.22512 -3.14398e-21)
(1.10793 0.214887 3.14554e-21)
(1.10717 0.204599 -9.42659e-21)
(1.10594 0.194293 2.25134e-21)
(1.10422 0.184009 7.65828e-22)
(0.899672 0.318107 -1.53987e-22)
(0.903659 0.322819 2.75456e-22)
(0.907758 0.327454 1.12264e-21)
(0.912044 0.332005 4.64479e-22)
(0.91661 0.336427 4.4439e-22)
(0.921543 0.340747 -7.21686e-23)
(0.926872 0.344838 1.33408e-23)
(0.932631 0.348718 -9.20108e-23)
(0.938875 0.352336 4.56803e-22)
(0.945544 0.355537 -8.27898e-22)
(0.952686 0.358347 6.55718e-22)
(0.960313 0.3607 1.39315e-22)
(0.96829 0.36242 -2.23019e-21)
(0.976585 0.363493 -2.81145e-21)
(0.985249 0.363921 1.7277e-21)
(0.994111 0.36358 3.91735e-21)
(1.00301 0.362425 2.40241e-21)
(1.01194 0.360476 -7.22308e-21)
(1.02089 0.357722 0)
(1.02968 0.354153 0)
(1.03813 0.349806 3.27038e-21)
(1.04624 0.344729 7.49595e-21)
(1.054 0.338938 -7.76035e-21)
(1.06136 0.332474 -4.01773e-22)
(1.06813 0.325452 -3.6419e-22)
(1.07429 0.31796 -3.30571e-22)
(1.0799 0.30999 4.53165e-21)
(1.08494 0.301586 4.8633e-21)
(1.0894 0.292799 -1.03745e-20)
(1.0932 0.283776 4.8488e-21)
(1.09635 0.274579 5.35899e-21)
(1.09893 0.265155 -2.61152e-22)
(1.10093 0.255533 2.03774e-22)
(1.10236 0.245746 5.55399e-21)
(1.10322 0.23588 -2.77192e-21)
(1.10354 0.225985 -5.59274e-21)
(1.10336 0.216015 2.79511e-21)
(1.10268 0.20596 2.87286e-21)
(1.10154 0.195852 -1.64891e-22)
(1.09991 0.18572 0)
(0.904216 0.315232 9.52166e-22)
(0.908068 0.319639 -1.73581e-22)
(0.912033 0.323966 -5.58389e-22)
(0.916176 0.328207 -4.01194e-22)
(0.920579 0.332319 -4.65907e-23)
(0.925321 0.336325 6.08026e-23)
(0.930424 0.34011 5.01878e-23)
(0.935918 0.34369 8.78383e-23)
(0.941853 0.34702 0)
(0.948172 0.349962 4.36362e-22)
(0.954919 0.352539 -6.27324e-22)
(0.962104 0.354695 1.74861e-21)
(0.969609 0.356272 -3.06406e-21)
(0.977407 0.357257 1.2289e-21)
(0.985543 0.357652 3.19106e-21)
(0.993868 0.357344 -5.05007e-21)
(1.00224 0.356289 0)
(1.01066 0.354502 2.31752e-21)
(1.0191 0.351971 0)
(1.02741 0.348679 2.65957e-21)
(1.03543 0.344658 -9.29658e-21)
(1.04316 0.339943 6.24892e-21)
(1.05058 0.334549 -6.93189e-21)
(1.05763 0.328509 0)
(1.06415 0.321922 -3.76943e-21)
(1.07011 0.314866 0)
(1.07556 0.307337 -8.59727e-21)
(1.08049 0.299373 8.65162e-21)
(1.08486 0.291021 0)
(1.0886 0.282415 -9.50009e-21)
(1.09173 0.273614 -7.4968e-23)
(1.09431 0.26457 4.66677e-21)
(1.09633 0.255314 -4.86967e-21)
(1.0978 0.245873 0)
(1.09871 0.236329 0)
(1.09909 0.226728 0)
(1.09897 0.217024 7.3321e-21)
(1.09836 0.207206 -2.48185e-21)
(1.0973 0.197297 -1.47786e-22)
(1.09576 0.187316 0)
(0.908405 0.312402 -2.00761e-22)
(0.912126 0.316538 -1.56806e-22)
(0.915961 0.320592 4.68053e-22)
(0.919966 0.32456 -3.72022e-22)
(0.924216 0.3284 -5.56048e-23)
(0.928779 0.33213 2.16384e-22)
(0.933674 0.335646 -5.92076e-23)
(0.938928 0.338963 -1.46895e-22)
(0.944583 0.34204 3.86813e-22)
(0.950588 0.344754 3.78287e-22)
(0.956982 0.347126 0)
(0.963774 0.349105 8.21599e-22)
(0.970858 0.350552 1.20363e-22)
(0.978212 0.351452 -1.27488e-21)
(0.985876 0.35181 2.4659e-21)
(0.993718 0.351522 0)
(1.00161 0.350544 0)
(1.00956 0.34889 8.05509e-21)
(1.01753 0.346545 3.99246e-22)
(1.02541 0.343492 -2.48418e-21)
(1.03302 0.339752 5.17433e-21)
(1.04038 0.335355 -5.57756e-21)
(1.04747 0.330314 -2.78871e-21)
(1.05422 0.324655 -6.69762e-21)
(1.0605 0.318462 1.036e-20)
(1.06625 0.311807 7.38085e-21)
(1.07153 0.304686 -1.87758e-20)
(1.07632 0.297133 1.15327e-20)
(1.08059 0.289192 8.16942e-21)
(1.08427 0.280983 -4.18963e-21)
(1.08736 0.272563 0)
(1.08992 0.26389 4.19652e-21)
(1.09194 0.254991 0)
(1.09343 0.245892 0)
(1.09437 0.236668 4.45917e-21)
(1.0948 0.22736 -8.79115e-21)
(1.09474 0.217923 -8.92217e-21)
(1.0942 0.208344 -4.3023e-21)
(1.09322 0.198634 -3.84142e-21)
(1.09176 0.1888 -5.26507e-22)
(0.91228 0.309604 0)
(0.915873 0.313497 0)
(0.919581 0.317307 -8.7731e-22)
(0.923452 0.321032 2.41054e-23)
(0.927554 0.32463 2.42119e-22)
(0.931948 0.328116 -1.55026e-22)
(0.936649 0.331396 3.33266e-23)
(0.941681 0.334481 0)
(0.947081 0.337336 -2.18555e-22)
(0.952801 0.339848 -1.05605e-21)
(0.958876 0.342038 9.78002e-22)
(0.965315 0.343861 1.29021e-21)
(0.97202 0.345189 0)
(0.978974 0.346012 -1.96641e-21)
(0.986213 0.346332 -4.89038e-21)
(0.993619 0.346054 5.31756e-21)
(1.00108 0.345139 2.71839e-22)
(1.00859 0.343595 -1.08468e-20)
(1.01614 0.34141 4.08867e-21)
(1.0236 0.338562 -1.32846e-20)
(1.03084 0.335068 -3.37186e-22)
(1.03785 0.330954 3.30862e-22)
(1.04462 0.326227 3.52675e-22)
(1.05108 0.320911 5.99681e-21)
(1.05711 0.315078 2.70198e-22)
(1.06265 0.308792 -6.0569e-21)
(1.06776 0.302049 -3.45986e-21)
(1.07241 0.294881 -3.83315e-21)
(1.07656 0.287328 7.14779e-21)
(1.08016 0.279497 -3.85186e-21)
(1.0832 0.271443 0)
(1.08573 0.263128 -1.01297e-22)
(1.08774 0.254578 -1.16771e-20)
(1.08924 0.245815 -2.79007e-23)
(1.09021 0.236908 3.98391e-21)
(1.09067 0.227892 4.12878e-21)
(1.09066 0.218723 4.11858e-21)
(1.09018 0.209381 4.09141e-21)
(1.08927 0.199868 5.82394e-21)
(1.08788 0.190179 0)
(0.915876 0.306825 2.49154e-23)
(0.919343 0.310499 -4.65304e-22)
(0.922925 0.31409 4.1145e-22)
(0.926666 0.317598 -3.51595e-22)
(0.930625 0.320979 -1.67008e-22)
(0.934858 0.324249 0)
(0.939376 0.327319 -3.2254e-23)
(0.944201 0.330199 0)
(0.949364 0.332858 -3.86043e-22)
(0.954822 0.335192 6.67735e-22)
(0.960606 0.337221 -9.43265e-22)
(0.966723 0.338904 -1.24319e-21)
(0.973085 0.340127 -1.47595e-21)
(0.979675 0.340878 -9.29481e-23)
(0.986528 0.341162 4.23679e-21)
(0.993537 0.34089 7.47055e-23)
(1.0006 0.340026 2.5645e-22)
(1.00772 0.338577 0)
(1.01487 0.336529 7.42393e-21)
(1.02195 0.333862 -3.776e-21)
(1.02884 0.330586 4.43886e-21)
(1.03552 0.326723 -4.46102e-21)
(1.04197 0.32228 1.4739e-20)
(1.04816 0.317275 0)
(1.05394 0.311771 0)
(1.05928 0.305825 3.62363e-22)
(1.06421 0.299434 -6.28819e-21)
(1.06871 0.292627 0)
(1.07274 0.285439 -2.62684e-22)
(1.07625 0.277969 6.63761e-21)
(1.07923 0.270266 -2.46885e-22)
(1.08172 0.262298 6.92364e-21)
(1.08371 0.254087 3.65062e-21)
(1.0852 0.245654 -7.04779e-21)
(1.08618 0.237059 -1.4701e-23)
(1.08668 0.228332 3.59329e-21)
(1.08671 0.21943 0)
(1.08628 0.210324 1.68071e-21)
(1.08543 0.201007 -1.86395e-21)
(1.08412 0.191456 -3.22045e-21)
(0.91922 0.304057 4.96305e-23)
(0.922563 0.307533 7.89948e-22)
(0.926021 0.310926 -9.99608e-23)
(0.929634 0.314237 5.31412e-22)
(0.933454 0.317424 1.79891e-22)
(0.937532 0.320501 8.11134e-23)
(0.941876 0.323383 -4.68373e-23)
(0.946505 0.326081 0)
(0.951448 0.328566 7.29668e-22)
(0.956663 0.330742 0)
(0.962178 0.332628 0)
(0.967999 0.334188 0)
(0.974047 0.335316 2.76582e-21)
(0.980305 0.336003 0)
(0.986804 0.336253 1.98926e-22)
(0.993449 0.335986 -6.75887e-21)
(1.00015 0.335166 4.96012e-21)
(1.0069 0.333799 2.82018e-21)
(1.01369 0.331872 0)
(1.02041 0.329365 -3.4455e-21)
(1.02697 0.326284 -4.0018e-21)
(1.03333 0.322648 -1.3524e-23)
(1.0395 0.318462 -4.86667e-21)
(1.04541 0.313741 4.36021e-21)
(1.05095 0.308539 4.90829e-21)
(1.05609 0.302907 3.24123e-22)
(1.06084 0.296845 -5.33127e-21)