# p  FACE_DATA 180
#  x  y  z  p
-0.49912 -0.0178469 0.5 -0.165779
-0.496703 -0.0110232 0.5 -0.453203
-0.492976 -0.00470316 0.5 -0.666507
-0.488305 0.00101201 0.5 -0.785714
-0.483079 0.00619137 0.5 -0.853474
-0.477364 0.0110256 0.5 -0.901083
-0.471461 0.0154276 0.5 -0.931556
-0.465306 0.0195404 0.5 -0.949226
-0.4589 0.0234414 0.5 -0.957427
-0.452528 0.0270077 0.5 -0.956289
-0.445952 0.0304188 0.5 -0.949381
-0.439149 0.0337051 0.5 -0.938446
-0.432452 0.0367332 0.5 -0.923363
-0.42574 0.0395854 0.5 -0.90646
-0.41874 0.0423878 0.5 -0.889941
-0.411728 0.0450352 0.5 -0.874457
-0.404865 0.0474841 0.5 -0.85969
-0.397915 0.0498366 0.5 -0.846196
-0.390751 0.0521356 0.5 -0.833908
-0.383559 0.0543232 0.5 -0.822322
-0.376523 0.0563547 0.5 -0.810915
-0.369482 0.0582886 0.5 -0.800306
-0.362276 0.0601709 0.5 -0.790448
-0.354912 0.0619957 0.5 -0.780893
-0.347677 0.0636973 0.5 -0.771171
-0.340599 0.0652782 0.5 -0.761445
-0.333405 0.0668064 0.5 -0.752289
-0.326085 0.0682825 0.5 -0.743465
-0.318645 0.0697025 0.5 -0.734625
-0.31134 0.0710223 0.5 -0.725579
-0.30418 0.0722464 0.5 -0.716544
-0.296921 0.0734217 0.5 -0.707956
-0.289562 0.0745469 0.5 -0.699629
-0.28211 0.0756193 0.5 -0.691294
-0.274704 0.0766147 0.5 -0.682766
-0.267401 0.0775122 0.5 -0.673173
-0.260063 0.0783355 0.5 -0.660598
-0.252654 0.0791184 0.5 -0.647576
-0.245219 0.0798859 0.5 -0.637201
-0.2378 0.080663 0.5 -0.628941
-0.224839 0.0817289 0.5 -0.630858
-0.206269 0.0830322 0.5 -0.603692
-0.187674 0.0840951 0.5 -0.586284
-0.169064 0.084806 0.5 -0.56819
-0.150345 0.0852257 0.5 -0.547569
-0.131676 0.08537 0.5 -0.527169
-0.113021 0.0852486 0.5 -0.507341
-0.0943277 0.084875 0.5 -0.487799
-0.0756917 0.084257 0.5 -0.468445
-0.0570011 0.0834008 0.5 -0.449032
-0.0383534 0.0823192 0.5 -0.429992
-0.0197504 0.0810174 0.5 -0.411142
-0.00112107 0.0795021 0.5 -0.392362
0.0174734 0.0777822 0.5 -0.374017
0.0360496 0.0758617 0.5 -0.355712
0.0546122 0.0737509 0.5 -0.337612
0.0731526 0.0714525 0.5 -0.319902
0.0916487 0.0689774 0.5 -0.302245
0.110146 0.0663258 0.5 -0.284971
0.128625 0.0635019 0.5 -0.267947
0.147048 0.0605228 0.5 -0.25112
0.165487 0.0573791 0.5 -0.234806
0.183835 0.0540934 0.5 -0.218752
0.202198 0.0506563 0.5 -0.203072
0.220585 0.0470661 0.5 -0.187877
0.238853 0.0433596 0.5 -0.173073
0.257171 0.0395065 0.5 -0.158864
0.275342 0.0355523 0.5 -0.145187
0.293582 0.0314574 0.5 -0.132056
0.311841 0.0272353 0.5 -0.119546
0.330014 0.022917 0.5 -0.107684
0.348196 0.0184857 0.5 -0.0965705
0.36633 0.0139572 0.5 -0.0861399
0.384412 0.00933809 0.5 -0.0765069
0.402529 0.00460539 0.5 -0.0675534
0.420474 -0.00018151 0.5 -0.0594436
0.438458 -0.00509393 0.5 -0.0519805
0.456725 -0.0102191 0.5 -0.0451591
0.474747 -0.0154967 0.5 -0.0385624
0.491852 -0.0216996 0.5 -0.0343454
-0.269191 -0.062892 0.5 0.192312
-0.275538 -0.0632599 0.5 0.194403
-0.281914 -0.0636378 0.5 0.19615
-0.288285 -0.0640136 0.5 0.197225
-0.294613 -0.0643754 0.5 0.19822
-0.300863 -0.0647111 0.5 0.199614
-0.307004 -0.0650089 0.5 0.201915
-0.313327 -0.0652771 0.5 0.205157
-0.319845 -0.0655212 0.5 0.208751
-0.326263 -0.0657323 0.5 0.212456
-0.332578 -0.0659087 0.5 0.216392
-0.338786 -0.0660487 0.5 0.220566
-0.344885 -0.0661508 0.5 0.225015
-0.351121 -0.066215 0.5 0.230189
-0.357596 -0.0662389 0.5 0.236144
-0.364053 -0.0662174 0.5 0.242583
-0.370372 -0.0661484 0.5 0.249463
-0.37655 -0.0660305 0.5 0.256784
-0.382602 -0.0658618 0.5 0.264689
-0.388925 -0.0656228 0.5 0.274226
-0.395479 -0.0653072 0.5 0.285283
-0.401845 -0.0649267 0.5 0.297123
-0.408019 -0.0644808 0.5 0.309868
-0.414058 -0.0639631 0.5 0.32398
-0.420377 -0.0633227 0.5 0.341357
-0.426881 -0.0625531 0.5 0.361771
-0.433116 -0.0616939 0.5 0.383811
-0.439078 -0.0607466 0.5 0.407962
-0.445269 -0.0596051 0.5 0.437968
-0.451674 -0.0582403 0.5 0.473976
-0.457727 -0.0567413 0.5 0.51281
-0.463645 -0.0550329 0.5 0.556174
-0.469708 -0.0529719 0.5 0.605233
-0.47554 -0.0506191 0.5 0.652834
-0.481121 -0.0478748 0.5 0.692225
-0.486533 -0.0445602 0.5 0.711167
-0.49139 -0.0406721 0.5 0.694326
-0.495497 -0.0360174 0.5 0.612969
-0.498337 -0.0305615 0.5 0.4346
-0.499668 -0.0245218 0.5 0.176718
0.493989 -0.0255671 0.5 -0.00944506
0.481661 -0.0256584 0.5 0.0260832
0.468743 -0.0250493 0.5 0.0530433
0.455903 -0.0243816 0.5 0.0768809
0.443086 -0.0237407 0.5 0.0941068
0.43032 -0.0231534 0.5 0.108612
0.417436 -0.0226209 0.5 0.120084
0.404557 -0.0221623 0.5 0.12934
0.392009 -0.0217848 0.5 0.137519
0.378964 -0.0214625 0.5 0.144253
0.366089 -0.0212219 0.5 0.149837
0.353553 -0.0210565 0.5 0.155008
0.340652 -0.0209519 0.5 0.159456
0.327676 -0.0209217 0.5 0.162985
0.31499 -0.0209615 0.5 0.166252
0.302291 -0.0210626 0.5 0.169235
0.289292 -0.0212313 0.5 0.171745
0.276404 -0.021465 0.5 0.173757
0.263762 -0.0217556 0.5 0.175607
0.251008 -0.0221051 0.5 0.177294
0.238056 -0.0225182 0.5 0.178731
0.225182 -0.0229871 0.5 0.179843
0.212496 -0.0235049 0.5 0.18073
0.199757 -0.0240769 0.5 0.181468
0.186884 -0.0247052 0.5 0.182118
0.174002 -0.0253829 0.5 0.182661
0.161252 -0.026102 0.5 0.182994
0.148534 -0.0268664 0.5 0.18318
0.135727 -0.0276797 0.5 0.183325
0.122864 -0.0285371 0.5 0.183498
0.110074 -0.0294292 0.5 0.183539
0.0973497 -0.0303577 0.5 0.183332
0.0845803 -0.0313282 0.5 0.183034
0.0717868 -0.032334 0.5 0.182823
0.0590033 -0.0333678 0.5 0.182723
0.0462363 -0.034431 0.5 0.182364
0.0334662 -0.0355272 0.5 0.18183
0.0206994 -0.0366506 0.5 0.181315
0.0079632 -0.0377921 0.5 0.181022
-0.0047917 -0.0389536 0.5 0.180748
-0.0175901 -0.0401414 0.5 0.180156
-0.0303693 -0.0413491 0.5 0.179492
-0.0430918 -0.0425653 0.5 0.179033
-0.0557889 -0.0437854 0.5 0.178875
-0.068574 -0.0450224 0.5 0.178466
-0.0814004 -0.0462753 0.5 0.177881
-0.0941401 -0.0475251 0.5 0.177424
-0.106769 -0.0487602 0.5 0.177371
-0.119516 -0.0499993 0.5 0.177385
-0.132401 -0.0512485 0.5 0.17712
-0.145178 -0.0524814 0.5 0.176943
-0.157806 -0.0536836 0.5 0.177211
-0.170519 -0.0548698 0.5 0.177841
-0.183408 -0.056051 0.5 0.178191
-0.196219 -0.0572023 0.5 0.178402
-0.208833 -0.058302 0.5 0.178961
-0.221521 -0.0593569 0.5 0.180884
-0.23434 -0.0603605 0.5 0.183429
-0.24704 -0.0613079 0.5 0.184215
-0.259692 -0.0622418 0.5 0.185509
