/*--------------------------------*- C++ -*----------------------------------*\
| =========                 |                                                 |
| \\      /  F ield         | OpenFOAM: The Open Source CFD Toolbox           |
|  \\    /   O peration     | Version:  3.0.1                                 |
|   \\  /    A nd           | Web:      www.OpenFOAM.org                      |
|    \\/     M anipulation  |                                                 |
\*---------------------------------------------------------------------------*/
FoamFile
{
    version     2.0;
    format      ascii;
    class       volScalarField;
    location    "500";
    object      nuTilda;
}
// * * * * * * * * * * * * * * * * * * * * * * * * * * * * * * * * * * * * * //

dimensions      [0 2 -1 0 0 0 0];

internalField   nonuniform List<scalar> 
58000
(
0.00080177
0.000731197
0.000659331
0.00060032
0.000557416
0.00051667
0.000487135
0.00046512
0.000447351
0.000435936
0.000429154
0.000424292
0.000420844
0.000420458
0.00042006
0.000419725
0.000419619
0.000420437
0.000421831
0.000423318
0.000424976
0.000426582
0.000428349
0.000429926
0.000431266
0.000432404
0.000433267
0.000433883
0.000434377
0.000434468
0.000434274
0.000433776
0.000432709
0.000431152
0.000428691
0.000425247
0.000421261
0.000417161
0.000413139
0.000410435
0.00302811
0.00272371
0.00240131
0.00209004
0.00183165
0.00161084
0.00143668
0.0013048
0.00119757
0.00111543
0.00105454
0.00100567
0.000964977
0.000936041
0.000914321
0.000896441
0.000881783
0.000871602
0.000864363
0.00085786
0.000852465
0.000845376
0.00083879
0.000832374
0.000825118
0.000817009
0.000808247
0.000799492
0.000791664
0.000783562
0.000774946
0.000765848
0.000756547
0.00074795
0.000738377
0.000727356
0.000715349
0.000703091
0.000691383
0.000681493
0.00528897
0.00494287
0.00454438
0.00411013
0.00371859
0.00336527
0.00306214
0.00281456
0.002601
0.00242907
0.00229729
0.00218819
0.00209361
0.00202303
0.00196834
0.00192122
0.0018796
0.00184737
0.00182337
0.00180256
0.00178315
0.0017626
0.00174464
0.00172841
0.00171186
0.0016945
0.00167638
0.00165829
0.00164224
0.00162465
0.0016049
0.00158341
0.00156031
0.00153645
0.00151132
0.0014842
0.00145589
0.00142675
0.00139785
0.0013718
0.00751887
0.00715594
0.00672007
0.00623712
0.00577284
0.00532941
0.00493629
0.00459912
0.00429458
0.00403803
0.00383322
0.0036586
0.00350343
0.00338257
0.00328643
0.00320205
0.00312598
0.00306364
0.00301472
0.00297252
0.00293141
0.00289039
0.00285469
0.00282302
0.0027919
0.00276005
0.00272754
0.00269414
0.00266234
0.00262988
0.00259559
0.00256013
0.00252195
0.00248226
0.00244096
0.00239705
0.00235172
0.00230505
0.00225828
0.00221398
0.00971842
0.00935462
0.00890741
0.00840062
0.00790149
0.0074115
0.006954
0.00655331
0.00617971
0.00585241
0.00558142
0.00534366
0.00512726
0.0049531
0.00481111
0.00468432
0.00456863
0.00447129
0.00439216
0.00432188
0.00425431
0.00418845
0.00413074
0.00407962
0.00403056
0.00397974
0.00392709
0.00387467
0.00382537
0.00377625
0.0037243
0.00366952
0.00361221
0.00355409
0.00349403
0.00343056
0.00336427
0.00329707
0.00322955
0.00316409
0.0118879
0.011529
0.0110824
0.0105679
0.0100536
0.0095357
0.00904452
0.00859943
0.00817574
0.00779554
0.00747045
0.00717833
0.00690675
0.00668164
0.00649401
0.00632392
0.00616695
0.00603206
0.0059203
0.00581821
0.00572047
0.00562621
0.00554307
0.00546929
0.00539668
0.0053232
0.00524874
0.00517568
0.00510607
0.0050362
0.00496444
0.00488904
0.00481027
0.00473072
0.00464921
0.00456381
0.0044749
0.00438468
0.0042938
0.0042046
0.0140321
0.0136811
0.013241
0.0127285
0.0122106
0.0116813
0.0111699
0.0106986
0.0102397
0.00981843
0.00945216
0.00911684
0.00879911
0.00852768
0.00829718
0.0080855
0.00788882
0.00771564
0.00756804
0.00743299
0.00730384
0.00717958
0.00706919
0.00696884
0.00687098
0.00677286
0.00667453
0.0065771
0.0064853
0.00639302
0.0062976
0.00619963
0.00609765
0.00599381
0.00588933
0.00578058
0.00566764
0.00555272
0.00543663
0.00532175
0.0161551
0.0158132
0.0153824
0.0148767
0.0143601
0.0138302
0.0133102
0.0128246
0.0123433
0.011894
0.0114944
0.0111225
0.0107658
0.0104573
0.01019
0.00994029
0.00970389
0.00949353
0.00931183
0.00914459
0.008984
0.0088294
0.00868891
0.00856113
0.00843753
0.00831307
0.00818782
0.00806495
0.00794747
0.00783066
0.00771131
0.00758806
0.00746161
0.00733289
0.00720362
0.00706984
0.00693192
0.00679039
0.00664728
0.00650504
0.0182606
0.0179285
0.0175084
0.0170128
0.0165026
0.0159763
0.0154542
0.0149618
0.0144676
0.0139987
0.0135768
0.0131781
0.0127891
0.0124474
0.0121472
0.0118637
0.0115926
0.0113481
0.0111341
0.0109364
0.0107446
0.0105579
0.0103874
0.010232
0.01008
0.00992788
0.00977585
0.00962546
0.00948236
0.00934001
0.0091949
0.00904543
0.00889249
0.00873732
0.00858185
0.00842165
0.00825676
0.00808771
0.00791662
0.00774594
0.0203515
0.0200294
0.0196207
0.0191367
0.0186355
0.0181159
0.0175959
0.0171001
0.0166009
0.0161207
0.0156831
0.0152634
0.0148512
0.0144833
0.0141554
0.0138425
0.0135405
0.0132646
0.0130195
0.0127899
0.0125675
0.0123517
0.0121517
0.0119671
0.0117878
0.0116077
0.0114268
0.011249
0.0110781
0.0109094
0.0107368
0.0105606
0.0103796
0.0101977
0.0100156
0.00982832
0.00963555
0.00943801
0.00923798
0.00903793
0.0224303
0.022118
0.021721
0.0212494
0.0207588
0.0202479
0.0197333
0.0192388
0.0187378
0.0182512
0.017803
0.0173689
0.0169387
0.0165479
0.016196
0.0158573
0.0155281
0.0152242
0.0149512
0.0146933
0.0144428
0.0141967
0.0139678
0.0137558
0.0135478
0.0133404
0.0131316
0.0129256
0.0127268
0.0125308
0.0123308
0.0121272
0.0119178
0.0117082
0.0114986
0.0112842
0.0110625
0.0108355
0.0106057
0.0103756
0.024499
0.0241964
0.0238109
0.0233519
0.0228726
0.0223718
0.0218645
0.021374
0.0208742
0.0203844
0.0199282
0.0194851
0.0190421
0.0186349
0.018264
0.0179038
0.0175507
0.0172217
0.016923
0.0166386
0.0163595
0.016085
0.0158288
0.0155882
0.0153527
0.0151162
0.0148797
0.0146449
0.0144178
0.0141941
0.0139681
0.0137375
0.0135001
0.0132623
0.0130244
0.0127818
0.0125311
0.0122746
0.0120149
0.0117542
0.0265591
0.0262658
0.0258917
0.0254454
0.0249777
0.0244876
0.0239889
0.0235041
0.0230078
0.022518
0.0220578
0.0216078
0.0211538
0.0207348
0.0203488
0.0199705
0.0195957
0.0192442
0.0189223
0.018615
0.0183109
0.0180097
0.017726
0.0174579
0.0171939
0.0169287
0.0166639
0.016403
0.016149
0.0158978
0.0156448
0.0153868
0.015121
0.014854
0.0145881
0.0143171
0.0140373
0.0137513
0.0134614
0.0131701
0.0286117
0.0283274
0.0279644
0.0275308
0.0270749
0.0265958
0.0261065
0.0256285
0.0251372
0.0246496
0.0241881
0.0237341
0.0232731
0.0228439
0.0224449
0.0220505
0.0216598
0.0212895
0.0209465
0.0206153
0.0202876
0.0199611
0.019649
0.0193548
0.0190664
0.0187754
0.0184832
0.0181946
0.0179147
0.0176364
0.017355
0.01707
0.0167765
0.0164809
0.0161861
0.0158867
0.015578
0.0152623
0.0149422
0.0146199
0.0306575
0.030382
0.03003
0.0296088
0.0291648
0.0286969
0.0282174
0.0277469
0.0272617
0.0267777
0.0263167
0.0258608
0.0253954
0.0249584
0.0245478
0.024142
0.0237377
0.0233512
0.0229895
0.0226367
0.0222836
0.0219337
0.0215982
0.0212791
0.0209652
0.02065
0.0203322
0.020017
0.0197112
0.0194061
0.019097
0.0187836
0.0184629
0.0181392
0.0178157
0.0174878
0.0171501
0.0168047
0.0164543
0.016101
0.0326967
0.0324302
0.0320891
0.0316803
0.0312481
0.0307915
0.030322
0.0298596
0.0293811
0.0289016
0.0284425
0.0279863
0.0275185
0.0270761
0.0266572
0.0262415
0.0258253
0.0254247
0.0250464
0.0246749
0.0243
0.0239266
0.0235691
0.0232266
0.0228882
0.0225493
0.0222065
0.0218655
0.0215342
0.0212029
0.0208666
0.0205263
0.0201779
0.0198259
0.019474
0.0191176
0.0187508
0.0183758
0.0179951
0.0176108
0.0347301
0.0344725
0.0341422
0.0337458
0.0333254
0.03288
0.0324207
0.0319665
0.0314952
0.0310211
0.0305647
0.0301093
0.0296406
0.0291945
0.0287694
0.0283454
0.0279191
0.0275061
0.0271132
0.0267249
0.0263309
0.0259368
0.025558
0.0251929
0.024831
0.0244686
0.0241017
0.0237358
0.0233793
0.0230225
0.0226597
0.0222915
0.0219168
0.0215376
0.0211577
0.0207731
0.0203774
0.0199729
0.019562
0.0191469
0.0367583
0.0365093
0.0361898
0.0358057
0.0353974
0.034963
0.0345137
0.034068
0.0336041
0.0331358
0.0326829
0.0322292
0.0317607
0.0313122
0.0308822
0.0304514
0.0300166
0.0295928
0.0291868
0.0287833
0.0283721
0.027959
0.0275601
0.0271738
0.0267894
0.0264033
0.0260141
0.0256242
0.0252422
0.0248615
0.0244735
0.0240791
0.0236781
0.0232719
0.0228643
0.0224516
0.0220273
0.0215936
0.0211529
0.0207072
0.0387814
0.038541
0.038232
0.0378603
0.0374649
0.0370406
0.0366012
0.036164
0.0357077
0.0352457
0.0347968
0.0343455
0.0338781
0.0334282
0.0329944
0.0325581
0.0321159
0.0316826
0.0312648
0.0308476
0.0304207
0.02999
0.0295712
0.029166
0.0287609
0.0283529
0.0279418
0.027529
0.027123
0.0267183
0.0263056
0.0258858
0.0254591
0.0250263
0.0245913
0.0241507
0.0236982
0.0232358
0.0227656
0.0222896
0.0407995
0.0405674
0.0402686
0.0399087
0.0395249
0.0391118
0.0386828
0.0382546
0.0378061
0.0373505
0.0369062
0.0364579
0.0359923
0.0355419
0.0351052
0.0346644
0.0342158
0.0337741
0.0333456
0.0329158
0.0324747
0.032028
0.0315915
0.0311678
0.0307429
0.0303142
0.0298821
0.0294471
0.0290182
0.0285903
0.0281535
0.0277089
0.0272571
0.0267983
0.0263363
0.0258674
0.0253877
0.0248973
0.0243982
0.0238924
0.0428126
0.0425886
0.0422999
0.0419517
0.0415787
0.0411766
0.0407584
0.0403405
0.0398991
0.0394501
0.0390107
0.038566
0.0381029
0.0376528
0.0372141
0.0367694
0.0363154
0.035866
0.0354277
0.0349863
0.034532
0.0340706
0.0336179
0.0331767
0.0327331
0.0322844
0.0318318
0.0313758
0.0309249
0.0304744
0.0300146
0.0295462
0.02907
0.0285859
0.0280977
0.0276019
0.0270951
0.0265769
0.0260493
0.0255141
0.0448202
0.0446042
0.0443257
0.0439899
0.0436266
0.0432349
0.042827
0.0424182
0.0419853
0.0415437
0.0411101
0.0406695
0.0402098
0.0397605
0.0393207
0.0388729
0.038414
0.0379574
0.0375098
0.0370575
0.0365909
0.0361159
0.035648
0.0351903
0.034729
0.0342613
0.033788
0.0333128
0.0328409
0.0323679
0.031887
0.0313958
0.0308958
0.0303871
0.0298735
0.0293516
0.0288183
0.0282729
0.0277173
0.0271533
0.046822
0.0466138
0.0463448
0.04602
0.0456674
0.0452866
0.044889
0.0444889
0.0440645
0.0436308
0.0432046
0.0427679
0.042313
0.0418644
0.041425
0.0409742
0.0405108
0.0400475
0.0395909
0.0391278
0.0386498
0.0381621
0.0376799
0.0372068
0.0367289
0.0362435
0.0357516
0.0352573
0.0347654
0.0342713
0.033769
0.0332555
0.0327323
0.0321999
0.0316619
0.0311148
0.0305557
0.0299838
0.0294008
0.0288085
0.0488176
0.048617
0.0483576
0.048043
0.0477011
0.0473313
0.0469452
0.0465528
0.0461365
0.0457105
0.0452905
0.0448587
0.0444079
0.0439614
0.0435225
0.0430717
0.0426055
0.0421352
0.0416697
0.0411952
0.0407069
0.0402075
0.0397119
0.0392241
0.0387309
0.0382292
0.0377199
0.0372076
0.0366964
0.0361822
0.0356592
0.0351239
0.0345773
0.0340227
0.0334614
0.03289
0.0323059
0.0317081
0.0310984
0.0304785
0.0508063
0.0506136
0.0503645
0.0500591
0.0497273
0.0493683
0.0489921
0.0486084
0.0482009
0.0477831
0.0473692
0.0469428
0.046496
0.0460519
0.045613
0.0451611
0.0446923
0.0442186
0.0437458
0.0432606
0.0427616
0.0422508
0.0417424
0.0412396
0.0407335
0.0402169
0.0396912
0.0391617
0.0386322
0.0380988
0.037556
0.037
0.0364318
0.0358551
0.0352709
0.0346759
0.0340675
0.0334446
0.0328089
0.032162
0.0527873
0.0526022
0.0523618
0.0520665
0.0517454
0.0513981
0.0510305
0.0506556
0.0502574
0.049849
0.0494407
0.0490206
0.0485774
0.0481368
0.0476974
0.0472438
0.0467717
0.046293
0.0458131
0.0453198
0.0448116
0.0442906
0.0437705
0.0432545
0.0427346
0.0422039
0.0416633
0.0411178
0.0405712
0.0400195
0.0394578
0.0388821
0.0382933
0.0376955
0.0370893
0.0364714
0.0358395
0.0351922
0.0345313
0.0338581
0.0547599
0.0545833
0.0543503
0.0540649
0.0537543
0.0534172
0.0530594
0.0526936
0.0523047
0.0519045
0.051503
0.0510882
0.0506498
0.0502122
0.0497748
0.0493202
0.0488441
0.0483598
0.0478717
0.0473716
0.0468554
0.0463254
0.0457946
0.0452663
0.0447323
0.0441893
0.0436351
0.0430748
0.042512
0.0419429
0.0413629
0.0407686
0.0401605
0.0395425
0.0389151
0.0382753
0.0376207
0.0369498
0.0362644
0.0355657
0.0567226
0.0565531
0.0563288
0.0560538
0.0557547
0.0554265
0.0550784
0.0547222
0.0543438
0.0539509
0.0535568
0.0531467
0.052714
0.0522781
0.0518412
0.0513856
0.050908
0.050419
0.0499233
0.0494159
0.0488923
0.048354
0.0478136
0.0472745
0.0467285
0.0461732
0.0456059
0.0450316
0.0444535
0.0438678
0.0432694
0.0426582
0.042032
0.0413949
0.0407474
0.0400864
0.0394099
0.0387164
0.0380072
0.0372839
0.0586751
0.0585124
0.0582969
0.0580323
0.0577431
0.0574251
0.0570871
0.0567404
0.0563709
0.0559862
0.0555986
0.0551941
0.0547662
0.0543344
0.0538981
0.0534401
0.0529593
0.0524646
0.0519642
0.051451
0.0509208
0.0503752
0.0498264
0.0492775
0.0487207
0.0481541
0.0475747
0.0469873
0.0463948
0.0457937
0.045179
0.0445509
0.0439073
0.0432519
0.042585
0.0419039
0.0412063
0.0404909
0.0397589
0.0390117
0.0606167
0.0604607
0.0602544
0.0600008
0.0597204
0.0594125
0.0590852
0.058749
0.0583873
0.0580115
0.0576295
0.0572314
0.056807
0.0563773
0.0559411
0.0554832
0.0549996
0.0544996
0.0539943
0.0534758
0.0529399
0.052388
0.0518317
0.0512741
0.0507077
0.0501307
0.0495401
0.0489406
0.0483349
0.0477194
0.0470895
0.0464456
0.0457854
0.0451124
0.0444271
0.0437266
0.0430089
0.0422724
0.0415185
0.0407484
0.0625465
0.0623971
0.0622005
0.0619556
0.061685
0.0613881
0.0610722
0.0607442
0.0603911
0.0600231
0.0596477
0.0592554
0.0588364
0.0584083
0.0579704
0.0575111
0.0570229
0.0565207
0.0560118
0.0554892
0.0549486
0.0543913
0.0538285
0.0532632
0.0526883
0.0521019
0.0515012
0.0508906
0.0502726
0.0496438
0.0489997
0.048341
0.047665
0.0469755
0.0462726
0.0455537
0.0448168
0.0440602
0.0432852
0.0424931
0.0644633
0.06432
0.0641315
0.0638962
0.0636362
0.0633512
0.0630447
0.0627261
0.062383
0.062022
0.0616538
0.0612668
0.0608512
0.0604231
0.0599846
0.0595212
0.0590318
0.0585278
0.0580163
0.0574903
0.0569459
0.0563842
0.055816
0.055244
0.0546615
0.0540668
0.0534569
0.0528362
0.052207
0.0515659
0.0509086
0.0502359
0.0495452
0.04884
0.0481206
0.0473843
0.0466291
0.0458533
0.0450582
0.044245
0.0663665
0.0662289
0.0660482
0.0658227
0.0655731
0.0652986
0.0650026
0.0646944
0.0643594
0.0640067
0.0636434
0.0632614
0.0628477
0.0624212
0.061981
0.061516
0.0610255
0.0605203
0.0600069
0.0594785
0.0589312
0.058366
0.0577932
0.0572155
0.0566265
0.0560245
0.0554064
0.0547766
0.054137
0.0534846
0.0528152
0.0521295
0.0514248
0.0507051
0.0499702
0.0492175
0.0484449
0.0476509
0.0468367
0.0460034
0.0682552
0.0681231
0.0679501
0.0677346
0.0674962
0.0672311
0.0669458
0.066646
0.0663205
0.0659745
0.0656169
0.065237
0.0648262
0.0643994
0.0639587
0.0634935
0.063003
0.0624975
0.061983
0.061453
0.0609037
0.0603359
0.0597596
0.0591772
0.0585826
0.0579742
0.0573489
0.0567109
0.056062
0.0553992
0.0547185
0.0540208
0.0533032
0.0525699
0.0518206
0.0510527
0.0502637
0.0494523
0.0486199
0.0477676
0.0701285
0.0700017
0.069836
0.0696312
0.0694018
0.0691472
0.0688708
0.0685806
0.068263
0.0679258
0.0675719
0.0671939
0.0667835
0.0663575
0.0659174
0.065453
0.0649636
0.0644586
0.063944
0.0634133
0.0628627
0.0622932
0.0617143
0.0611282
0.060529
0.0599152
0.0592835
0.0586382
0.0579809
0.0573087
0.0566178
0.055909
0.0551795
0.0544335
0.0536709
0.0528897
0.0520846
0.0512565
0.0504069
0.0495367
0.0719857
0.0718636
0.0717045
0.0715083
0.0712892
0.0710434
0.0707771
0.070495
0.0701869
0.0698538
0.0695041
0.0691275
0.0687192
0.0682952
0.0678569
0.0673944
0.0669068
0.0664033
0.0658892
0.0653586
0.0648077
0.0642373
0.0636566
0.0630679
0.0624654
0.0618469
0.0612096
0.0605578
0.059893
0.0592123
0.0585121
0.0577931
0.0570526
0.0562949
0.0555196
0.0547252
0.0539056
0.0530623
0.0521966
0.05131
0.0738261
0.0737083
0.0735549
0.0733661
0.0731554
0.0729196
0.0726615
0.0723894
0.0720865
0.0717596
0.0714123
0.0710384
0.0706335
0.0702126
0.069777
0.0693172
0.0688323
0.068331
0.0678183
0.0672885
0.0667379
0.0661675
0.0655859
0.0649956
0.0643918
0.0637685
0.0631262
0.0624687
0.0617973
0.0611091
0.0604006
0.0596725
0.0589217
0.0581531
0.057366
0.0565589
0.055726
0.0548686
0.0539883
0.0530865
0.0756491
0.0755354
0.0753872
0.0752047
0.075001
0.0747731
0.074524
0.0742581
0.073963
0.073642
0.0732976
0.0729274
0.0725267
0.0721098
0.0716777
0.0712214
0.0707399
0.0702414
0.0697308
0.0692024
0.0686529
0.0680831
0.0675012
0.0669097
0.0663042
0.0656781
0.0650322
0.06437
0.0636929
0.0629983
0.0622827
0.0615461
0.060786
0.0600072
0.0592092
0.0583903
0.0575451
0.0566748
0.055781
0.0548658
0.0774542
0.0773443
0.0772009
0.0770241
0.0768266
0.0766052
0.0763629
0.0761031
0.0758144
0.0754993
0.0751601
0.0747947
0.0743991
0.0739869
0.0735589
0.0731066
0.0726291
0.072134
0.071626
0.0710998
0.070552
0.0699834
0.0694019
0.06881
0.0682032
0.0675753
0.0669267
0.0662609
0.0655791
0.064879
0.0641581
0.0634131
0.0626442
0.0618562
0.0610481
0.0602186
0.0593621
0.05848
0.0575742
0.056647
0.0792407
0.0791345
0.0789956
0.0788243
0.0786323
0.0784168
0.0781804
0.0779264
0.0776436
0.0773344
0.0770008
0.0766409
0.076251
0.0758439
0.0754205
0.0749728
0.0744996
0.0740085
0.0735037
0.07298
0.0724345
0.0718678
0.0712874
0.0706957
0.0700885
0.0694596
0.0688096
0.0681408
0.0674547
0.0667495
0.0660227
0.0652711
0.064495
0.0636989
0.0628819
0.0620427
0.061176
0.0602834
0.0593671
0.0584297
0.0810081
0.0809053
0.0807708
0.0806046
0.0804179
0.080208
0.0799772
0.0797286
0.0794516
0.0791483
0.0788203
0.0784661
0.0780822
0.0776806
0.0772622
0.0768193
0.076351
0.0758642
0.075363
0.0748425
0.0742999
0.0737357
0.073157
0.0725662
0.0719593
0.0713304
0.0706808
0.0700089
0.0693191
0.0686091
0.0678758
0.0671193
0.0663374
0.0655345
0.0647093
0.0638618
0.0629862
0.0620844
0.0611588
0.0602132
0.0827554
0.0826561
0.0825258
0.0823646
0.082183
0.0819784
0.0817531
0.0815097
0.0812384
0.0809409
0.0806187
0.0802704
0.0798925
0.0794966
0.0790835
0.0786458
0.0781826
0.0777005
0.0772034
0.0766866
0.0761473
0.0755862
0.0750101
0.0744209
0.0738149
0.0731865
0.0725367
0.0718634
0.0711711
0.0704576
0.0697197
0.0689577
0.0681712
0.0673626
0.0665305
0.0656754
0.0647919
0.063882
0.0629486
0.0619967
0.0844821
0.0843861
0.0842598
0.0841034
0.0839268
0.0837275
0.0835075
0.0832694
0.0830036
0.082712
0.0823956
0.0820532
0.0816815
0.0812915
0.0808839
0.0804516
0.0799938
0.0795168
0.0790241
0.0785114
0.0779761
0.0774187
0.0768458
0.0762593
0.0756548
0.0750272
0.0743776
0.0737037
0.0730098
0.072294
0.0715531
0.0707873
0.0699967
0.0691828
0.0683446
0.0674827
0.0665922
0.0656753
0.0647358
0.0637796
0.0861872
0.0860944
0.0859721
0.0858204
0.0856487
0.0854545
0.0852398
0.0850069
0.0847467
0.0844609
0.0841503
0.0838139
0.0834486
0.0830646
0.0826626
0.082236
0.0817839
0.0813122
0.0808244
0.0803162
0.0797853
0.0792322
0.0786633
0.0780814
0.0774783
0.0768521
0.076203
0.0755291
0.0748345
0.0741174
0.0733749
0.0726065
0.0718135
0.0709941
0.0701503
0.0692825
0.0683861
0.0674634
0.0665192
0.0655611
0.0878699
0.0877803
0.0876619
0.0875148
0.0873479
0.0871588
0.0869492
0.0867215
0.0864669
0.0861869
0.0858823
0.085552
0.0851931
0.0848153
0.0844191
0.0839983
0.0835521
0.0830861
0.0826034
0.0821002
0.0815741
0.0810257
0.0804612
0.0798831
0.0792832
0.0786608
0.0780121
0.0773386
0.076644
0.0759268
0.0751845
0.0744134
0.0736175
0.0727943
0.0719462
0.0710736
0.0701722
0.0692451
0.0682978
0.0673401
0.0895296
0.089443
0.0893284
0.0891858
0.0890236
0.0888395
0.0886351
0.0884125
0.0881636
0.0878894
0.0875908
0.0872667
0.0869142
0.0865427
0.0861525
0.0857377
0.0852977
0.0848376
0.0843604
0.0838626
0.0833418
0.0827987
0.082239
0.0816649
0.0810685
0.0804492
0.0798027
0.0791307
0.0784372
0.0777208
0.0769783
0.0762063
0.0754082
0.0745822
0.0737308
0.0728546
0.0719495
0.0710192
0.0700705
0.0691156
0.0911653
0.0910817
0.0909708
0.0908327
0.0906751
0.0904959
0.0902966
0.0900792
0.0898359
0.0895677
0.0892751
0.0889572
0.0886113
0.0882461
0.087862
0.0874534
0.0870198
0.0865659
0.0860946
0.0856025
0.0850876
0.0845504
0.0839964
0.0834267
0.082834
0.0822179
0.0815742
0.0809045
0.080213
0.0794992
0.0787564
0.0779844
0.0771844
0.0763561
0.0755032
0.0746244
0.0737168
0.0727845
0.071836
0.0708864
0.0927764
0.0926957
0.0925885
0.0924546
0.0923016
0.0921272
0.0919331
0.0917208
0.0914831
0.091221
0.0909345
0.0906229
0.0902836
0.0899248
0.0895469
0.0891447
0.0887176
0.0882702
0.0878052
0.0873193
0.0868106
0.08628
0.0857334
0.0851677
0.0845793
0.0839667
0.083326
0.0826591
0.0819699
0.0812581
0.0805164
0.0797448
0.078944
0.0781157
0.0772634
0.0763823
0.0754727
0.0745397
0.073593
0.0726512
0.0943622
0.0942843
0.0941806
0.094051
0.0939024
0.0937328
0.0935437
0.0933366
0.0931046
0.0928486
0.0925685
0.0922632
0.0919304
0.091578
0.0912064
0.0908108
0.0903904
0.0899498
0.0894913
0.089012
0.0885101
0.0879864
0.0874462
0.0868863
0.0863042
0.0856947
0.0850572
0.0843935
0.0837072
0.0829976
0.0822578
0.0814875
0.0806874
0.0798595
0.0790073
0.0781257
0.0772157
0.0762833
0.0753401
0.0744085
0.095922
0.0958469
0.0957466
0.0956211
0.0954769
0.0953121
0.0951279
0.094926
0.0946997
0.09445
0.0941766
0.0938773
0.0935509
0.0932049
0.0928398
0.0924509
0.0920375
0.0916038
0.0911523
0.09068
0.0901855
0.0896693
0.0891355
0.0885813
0.0880046
0.0873997
0.0867665
0.0861069
0.085424
0.0847174
0.08398
0.0832118
0.0824132
0.0815865
0.0807349
0.0798539
0.0789445
0.078014
0.0770758
0.076157
0.0974553
0.0973828
0.0972859
0.0971644
0.0970245
0.0968643
0.096685
0.0964882
0.0962676
0.0960243
0.0957589
0.0954646
0.0951444
0.0948049
0.0944463
0.0940643
0.0936581
0.0932317
0.0927875
0.0923227
0.0918361
0.091329
0.0908011
0.0902529
0.0896814
0.0890814
0.0884531
0.0877982
0.0871199
0.0864166
0.0856822
0.0849166
0.0841203
0.0832955
0.0824455
0.0815657
0.0806582
0.0797306
0.078799
0.0778951
0.0989614
0.0988915
0.0987978
0.0986803
0.0985446
0.0983889
0.0982145
0.0980226
0.0978076
0.0975703
0.0973112
0.0970234
0.0967098
0.0963771
0.0960253
0.0956504
0.0952517
0.0948328
0.0943961
0.0939392
0.0934611
0.0929618
0.0924411
0.0919007
0.0913339
0.090739
0.0901161
0.0894667
0.0887947
0.0880945
0.0873633
0.0866009
0.0858077
0.0849856
0.0841378
0.0832604
0.0823555
0.081432
0.0805083
0.0796212
0.10044
0.100372
0.100282
0.100168
0.100037
0.0998855
0.0997158
0.0995288
0.0993192
0.0990878
0.0988348
0.0985534
0.0982468
0.0979211
0.0975763
0.0972087
0.0968176
0.0964065
0.0959777
0.0955292
0.0950608
0.0945683
0.094055
0.0935211
0.0929601
0.0923712
0.0917546
0.0911109
0.0904442
0.0897486
0.0890217
0.0882634
0.0874741
0.0866555
0.0858109
0.0849367
0.0840354
0.0831171
0.0822023
0.081334
0.10189
0.101825
0.101738
0.101628
0.1015
0.101354
0.101189
0.101006
0.100802
0.100576
0.100329
0.100055
0.0997551
0.0994365
0.0990988
0.0987386
0.0983553
0.0979523
0.0975316
0.0970914
0.0966315
0.0961473
0.0956428
0.0951145
0.0945594
0.0939771
0.0933685
0.0927301
0.0920686
0.0913782
0.0906564
0.0899031
0.0891184
0.088304
0.0874637
0.0865936
0.085697
0.0847846
0.0838799
0.0830318
0.103312
0.10325
0.103165
0.103059
0.102935
0.102793
0.102632
0.102455
0.102256
0.102036
0.101795
0.101527
0.101234
0.100923
0.100592
0.10024
0.0998646
0.0994698
0.0990575
0.0986261
0.0981744
0.0976984
0.0972012
0.0966794
0.0961308
0.0955551
0.0949537
0.0943223
0.0936669
0.0929824
0.0922664
0.0915188
0.0907398
0.0899307
0.0890955
0.0882305
0.0873392
0.0864337
0.0855398
0.0847132
0.104705
0.104645
0.104564
0.104461
0.104341
0.104203
0.104047
0.103874
0.103681
0.103466
0.103231
0.10297
0.102684
0.10238
0.102057
0.101712
0.101345
0.100959
0.100555
0.100134
0.0996893
0.0992222
0.0987309
0.0982154
0.0976735
0.0971048
0.0965107
0.0958878
0.0952385
0.0945603
0.0938509
0.0931099
0.0923373
0.0915347
0.0907055
0.0898463
0.0889613
0.0880633
0.087181
0.0863767
0.106069
0.106011
0.105933
0.105833
0.105717
0.105583
0.105432
0.105264
0.105075
0.104867
0.104638
0.104383
0.104105
0.103808
0.103492
0.103155
0.102796
0.102418
0.102024
0.101611
0.101174
0.100715
0.10023
0.0997218
0.099187
0.0986255
0.0980385
0.0974235
0.0967818
0.096111
0.0954091
0.0946755
0.09391
0.0931153
0.0922931
0.0914406
0.0905623
0.0896725
0.0888024
0.0880211
0.107404
0.107348
0.107272
0.107176
0.107064
0.106934
0.106787
0.106624
0.10644
0.106238
0.106015
0.105767
0.105496
0.105205
0.104897
0.104567
0.104217
0.103849
0.103464
0.103058
0.10263
0.102177
0.101699
0.101198
0.100671
0.100117
0.0995362
0.0989301
0.0982965
0.0976341
0.0969405
0.0962152
0.0954583
0.0946734
0.093858
0.0930124
0.0921417
0.0912605
0.0904029
0.089645
0.108709
0.108655
0.108582
0.108489
0.108381
0.108255
0.108112
0.107953
0.107775
0.107578
0.107362
0.107121
0.106856
0.106573
0.106272
0.10595
0.105608
0.10525
0.104872
0.104473
0.104052
0.103607
0.103137
0.102644
0.102125
0.101579
0.101007
0.100409
0.0997835
0.0991296
0.0984447
0.0977285
0.0969808
0.0962051
0.0953982
0.0945609
0.0936984
0.0928265
0.0919817
0.0912472
0.109984
0.109933
0.109862
0.109773
0.109668
0.109545
0.109407
0.109253
0.10908
0.108888
0.108678
0.108446
0.108187
0.10791
0.107616
0.107302
0.106969
0.106618
0.106248
0.105856
0.105443
0.105005
0.104544
0.10406
0.10355
0.103013
0.102449
0.101858
0.101242
0.100598
0.0999222
0.0992155
0.0984775
0.0977114
0.0969138
0.0960854
0.0952319
0.0943697
0.0935379
0.0928268
0.11123
0.11118
0.111112
0.111026
0.110924
0.110806
0.110672
0.110522
0.110354
0.110168
0.109964
0.109738
0.109486
0.109216
0.108929
0.108623
0.1083
0.107956
0.107592
0.107207
0.1068
0.106372
0.105921
0.105446
0.104945
0.104417
0.103862
0.10328
0.102673
0.102038
0.101373
0.100676
0.0999482
0.0991924
0.0984046
0.0975858
0.0967418
0.0958898
0.095071
0.0943829
0.112446
0.112398
0.112333
0.112249
0.112151
0.112037
0.111906
0.111761
0.111598
0.111417
0.111219
0.111
0.110755
0.110492
0.110212
0.109913
0.109597
0.109261
0.108905
0.108528
0.108129
0.10771
0.107267
0.106801
0.10631
0.105792
0.105247
0.104675
0.104077
0.103451
0.102795
0.10211
0.101394
0.100648
0.0998709
0.099062
0.0982278
0.0973861
0.0965803
0.0959147
0.113632
0.113586
0.113523
0.113443
0.113348
0.113237
0.113111
0.11297
0.112811
0.112636
0.112443
0.11223
0.111992
0.111737
0.111464
0.111172
0.110863
0.110535
0.110187
0.109819
0.109428
0.109017
0.108584
0.108127
0.107645
0.107137
0.106602
0.106041
0.105453
0.104837
0.104192
0.103518
0.102815
0.10208
0.101312
0.100513
0.0996895
0.0988584
0.0980654
0.0974214
0.114789
0.114745
0.114684
0.114607
0.114515
0.114407
0.114285
0.114148
0.113995
0.113824
0.113638
0.113431
0.1132
0.112952
0.112686
0.112401
0.112098
0.111778
0.111439
0.111079
0.110697
0.110294
0.10987
0.109423
0.108951
0.108453
0.107929
0.107378
0.106801
0.106196
0.105562
0.104899
0.104208
0.103484
0.102727
0.10194
0.101126
0.100306
0.0995256
0.0989025
0.115916
0.115874
0.115815
0.115741
0.115652
0.115548
0.11543
0.115297
0.115148
0.114983
0.114802
0.114601
0.114378
0.114137
0.113877
0.1136
0.113303
0.112992
0.11266
0.112309
0.111935
0.11154
0.111126
0.110689
0.110227
0.10974
0.109226
0.108686
0.10812
0.107527
0.106904
0.106253
0.105574
0.104861
0.104116
0.10334
0.102538
0.101728
0.10096
0.100357
0.117014
0.116973
0.116917
0.116845
0.116759
0.116659
0.116544
0.116416
0.116271
0.116111
0.115936
0.115742
0.115527
0.115292
0.115039
0.114768
0.114479
0.114175
0.113852
0.113508
0.113144
0.112758
0.112353
0.111925
0.111474
0.110997
0.110494
0.109966
0.109411
0.108829
0.108219
0.10758
0.106912
0.106212
0.105479
0.104714
0.103923
0.103125
0.102369
0.101785
0.118083
0.118044
0.11799
0.11792
0.117838
0.117741
0.11763
0.117505
0.117365
0.11721
0.11704
0.116852
0.116644
0.116416
0.11617
0.115907
0.115625
0.115328
0.115013
0.114678
0.114323
0.113946
0.11355
0.113132
0.112691
0.112225
0.111733
0.111216
0.110672
0.110102
0.109504
0.10888
0.108224
0.107535
0.106814
0.106061
0.105283
0.104496
0.103752
0.103186
0.119123
0.119085
0.119033
0.118966
0.118887
0.118793
0.118686
0.118565
0.118429
0.118279
0.118114
0.117932
0.117731
0.11751
0.117272
0.117016
0.116742
0.116451
0.116145
0.115819
0.115472
0.115104
0.114716
0.114309
0.113878
0.113423
0.112942
0.112436
0.111905
0.111347
0.110761
0.110149
0.109506
0.10883
0.108122
0.107382
0.106615
0.105841
0.105109
0.10456
0.120134
0.120098
0.120048
0.119984
0.119907
0.119816
0.119713
0.119596
0.119465
0.119319
0.119159
0.118983
0.118789
0.118576
0.118344
0.118095
0.117829
0.117545
0.117247
0.11693
0.116592
0.116233
0.115855
0.115457
0.115036
0.114592
0.114123
0.113628
0.113109
0.112563
0.111989
0.11139
0.11076
0.110097
0.109402
0.108675
0.107921
0.107158
0.106438
0.105905
0.121117
0.121083
0.121035
0.120973
0.120899
0.120811
0.120711
0.120598
0.120471
0.12033
0.120175
0.120005
0.119818
0.119613
0.119388
0.119146
0.118886
0.118611
0.11832
0.118011
0.117683
0.117334
0.116965
0.116576
0.116165
0.115732
0.115274
0.114791
0.114283
0.11375
0.113189
0.112603
0.111986
0.111337
0.110655
0.109941
0.1092
0.108449
0.107741
0.107222
0.122073
0.122039
0.121993
0.121934
0.121862
0.121778
0.121681
0.121572
0.121449
0.121313
0.121163
0.120998
0.120817
0.120619
0.120402
0.120167
0.119915
0.119648
0.119364
0.119064
0.118745
0.118405
0.118046
0.117666
0.117266
0.116843
0.116396
0.115925
0.115429
0.114908
0.114361
0.113788
0.113184
0.112548
0.11188
0.11118
0.110452
0.109713
0.109016
0.108511
0.123
0.122969
0.122924
0.122867
0.122798
0.122717
0.122624
0.122518
0.1224
0.122268
0.122123
0.121963
0.121788
0.121597
0.121387
0.12116
0.120916
0.120656
0.12038
0.120089
0.119778
0.119448
0.119098
0.118729
0.118338
0.117925
0.11749
0.117031
0.116547
0.116038
0.115506
0.114946
0.114355
0.113732
0.113077
0.112391
0.111676
0.11095
0.110263
0.10977
0.123901
0.123871
0.123828
0.123773
0.123707
0.123629
0.123539
0.123437
0.123322
0.123195
0.123054
0.1229
0.122731
0.122547
0.122345
0.122125
0.121889
0.121637
0.121369
0.121085
0.120783
0.120463
0.120123
0.119763
0.119383
0.118981
0.118556
0.118108
0.117636
0.117141
0.116622
0.116075
0.115497
0.114888
0.114247
0.113574
0.112872
0.112158
0.111482
0.111001
0.124775
0.124746
0.124705
0.124653
0.124589
0.124514
0.124427
0.124329
0.124218
0.124095
0.123959
0.12381
0.123647
0.123469
0.123276
0.123063
0.122834
0.12259
0.12233
0.122053
0.121761
0.121449
0.121119
0.12077
0.1204
0.120008
0.119595
0.119158
0.118699
0.118216
0.11771
0.117175
0.116611
0.116015
0.115387
0.114728
0.11404
0.113339
0.112673
0.112202
0.125623
0.125595
0.125556
0.125506
0.125444
0.125372
0.125288
0.125194
0.125087
0.124968
0.124837
0.124693
0.124535
0.124364
0.124178
0.123973
0.123752
0.123515
0.123263
0.122995
0.122711
0.122408
0.122088