/*--------------------------------*- C++ -*----------------------------------*\
| =========                 |                                                 |
| \\      /  F ield         | OpenFOAM: The Open Source CFD Toolbox           |
|  \\    /   O peration     | Version:  3.0.1                                 |
|   \\  /    A nd           | Web:      www.OpenFOAM.org                      |
|    \\/     M anipulation  |                                                 |
\*---------------------------------------------------------------------------*/
FoamFile
{
    version     2.0;
    format      ascii;
    class       volScalarField;
    location    "500";
    object      p;
}
// * * * * * * * * * * * * * * * * * * * * * * * * * * * * * * * * * * * * * //

dimensions      [0 2 -2 0 0 0 0];

internalField   nonuniform List<scalar> 
58000
(
0.0259759
-0.23725
-0.4244
-0.538854
-0.606451
-0.64976
-0.679541
-0.695295
-0.703319
-0.705094
-0.700345
-0.691451
-0.680226
-0.666721
-0.65181
-0.636868
-0.622553
-0.608894
-0.595809
-0.583468
-0.571801
-0.560666
-0.549968
-0.539666
-0.529849
-0.520442
-0.511248
-0.50224
-0.49341
-0.484789
-0.476363
-0.467889
-0.459365
-0.451057
-0.443306
-0.43466
-0.425647
-0.417418
-0.411037
-0.405707
0.295102
0.185089
0.0731953
-0.0470105
-0.153837
-0.248038
-0.325859
-0.391751
-0.44925
-0.493704
-0.526693
-0.551478
-0.568374
-0.577125
-0.581049
-0.580676
-0.576739
-0.570336
-0.562779
-0.554529
-0.545634
-0.536411
-0.52719
-0.518314
-0.509536
-0.500758
-0.492033
-0.483461
-0.475225
-0.467353
-0.459613
-0.452105
-0.444807
-0.437627
-0.430435
-0.422661
-0.414508
-0.406787
-0.400207
-0.395086
0.202271
0.121091
0.0434482
-0.0349488
-0.112214
-0.182203
-0.24853
-0.305233
-0.355775
-0.399902
-0.434758
-0.462523
-0.484964
-0.500793
-0.510674
-0.516701
-0.519555
-0.519459
-0.517145
-0.513373
-0.508507
-0.502812
-0.496578
-0.490139
-0.483466
-0.476578
-0.469546
-0.462474
-0.45554
-0.448718
-0.441848
-0.434965
-0.428066
-0.421184
-0.414428
-0.407659
-0.400826
-0.394179
-0.387967
-0.382188
0.205162
0.156259
0.104969
0.0478324
-0.01259
-0.0727134
-0.132258
-0.187024
-0.238904
-0.286209
-0.326283
-0.360883
-0.391153
-0.415102
-0.43285
-0.446625
-0.456888
-0.463471
-0.466821
-0.467938
-0.467406
-0.465472
-0.462383
-0.458482
-0.453986
-0.449017
-0.443656
-0.43802
-0.432301
-0.426534
-0.420644
-0.414669
-0.408624
-0.402568
-0.396605
-0.390663
-0.384652
-0.378665
-0.372825
-0.36717
0.172576
0.136681
0.100731
0.0610747
0.0169696
-0.0282649
-0.0761804
-0.122152
-0.167388
-0.21103
-0.249768
-0.28455
-0.316457
-0.343504
-0.36485
-0.382722
-0.397463
-0.408626
-0.416267
-0.421387
-0.424643
-0.426216
-0.426235
-0.424989
-0.422855
-0.420026
-0.416586
-0.412653
-0.408399
-0.403897
-0.39915
-0.394201
-0.389071
-0.383834
-0.378599
-0.37335
-0.368023
-0.362657
-0.357306
-0.351989
0.154477
0.127082
0.0999559
0.0701853
0.0366529
0.00181089
-0.0364086
-0.0743759
-0.112863
-0.151463
-0.187146
-0.220382
-0.251964
-0.280057
-0.303327
-0.323778
-0.34157
-0.356085
-0.36709
-0.375504
-0.381986
-0.386643
-0.389492
-0.39074
-0.390869
-0.390115
-0.388566
-0.386326
-0.383546
-0.380337
-0.376776
-0.37291
-0.368769
-0.364429
-0.359997
-0.355489
-0.35086
-0.346125
-0.341314
-0.336447
0.136257
0.114232
0.0928814
0.0697915
0.0436335
0.0165015
-0.0139655
-0.0448594
-0.0767666
-0.10979
-0.14128
-0.171407
-0.200832
-0.228084
-0.251458
-0.272727
-0.29192
-0.308352
-0.321547
-0.332289
-0.3412
-0.348299
-0.353513
-0.356935
-0.359101
-0.360267
-0.360504
-0.359899
-0.358573
-0.356662
-0.354296
-0.351528
-0.348393
-0.344967
-0.341349
-0.337581
-0.333637
-0.329529
-0.325277
-0.320903
0.121403
0.103106
0.085604
0.0669221
0.0458026
0.0240493
-0.000647124
-0.0259767
-0.0524101
-0.0803709
-0.107665
-0.134313
-0.160877
-0.186286
-0.208687
-0.229625
-0.249039
-0.26626
-0.280654
-0.29285
-0.303411
-0.312277
-0.319308
-0.324488
-0.328359
-0.331175
-0.332985
-0.333854
-0.333871
-0.333179
-0.331952
-0.330243
-0.328088
-0.325559
-0.322748
-0.319715
-0.316455
-0.312974
-0.309293
-0.305437
0.108524
0.0929532
0.0782086
0.0626478
0.0451227
0.0272292
0.00682149
-0.0142141
-0.0362661
-0.0599328
-0.0834255
-0.106705
-0.130258
-0.153377
-0.174203
-0.194081
-0.212907
-0.230081
-0.244881
-0.257787
-0.269297
-0.279294
-0.287601
-0.294097
-0.2993
-0.30345
-0.306571
-0.308704
-0.309905
-0.310311
-0.310125
-0.309395
-0.308157
-0.306476
-0.304436
-0.302109
-0.299508
-0.296637
-0.293519
-0.290178
0.0974556
0.0839587
0.0712623
0.0579868
0.0431061
0.0280416
0.0108492
-0.00689603
-0.0255159
-0.0456762
-0.0659209
-0.0861881
-0.10691
-0.127662
-0.146681
-0.165135
-0.182904
-0.199479
-0.214114
-0.227165
-0.239067
-0.249662
-0.258762
-0.266157
-0.272328
-0.277489
-0.281642
-0.284804
-0.287
-0.28835
-0.289076
-0.289217
-0.288807
-0.287903
-0.286576
-0.284911
-0.28293
-0.28064
-0.278061
-0.27522
0.0878475
0.0759808
0.0648645
0.0533272
0.0404569
0.0275259
0.0127909
-0.0024084
-0.0183391
-0.0356707
-0.0532072
-0.0708856
-0.0890887
-0.107598
-0.124793
-0.141696
-0.158182
-0.173837
-0.187936
-0.200738
-0.212622
-0.223403
-0.232897
-0.240835
-0.247646
-0.25352
-0.258436
-0.262392
-0.265387
-0.267517
-0.269011
-0.269901
-0.270214
-0.269999
-0.269316
-0.268253
-0.266843
-0.26509
-0.263017
-0.260647
0.0794626
0.0689107
0.0590487
0.0488733
0.0375749
0.026295
0.0134774
0.000278256
-0.0135259
-0.0285762
-0.0438782
-0.0593731
-0.0753975
-0.091877
-0.107355
-0.122721
-0.137861
-0.152445
-0.165793
-0.178092
-0.189672
-0.20034
-0.209924
-0.218115
-0.225292
-0.23162
-0.237059
-0.241592
-0.245197
-0.247946
-0.250065
-0.251577
-0.252502
-0.252882
-0.252763
-0.252233
-0.251335
-0.25007
-0.24846
-0.246526
0.0721023
0.0626337
0.0537918
0.0447114
0.034673
0.0247025
0.0134123
0.0018109
-0.0102902
-0.0234878
-0.0369464
-0.0506125
-0.064781
-0.0794717
-0.0933862
-0.107307
-0.12113
-0.134599
-0.147092
-0.158742
-0.169839
-0.18019
-0.189641
-0.197861
-0.205187
-0.211757
-0.217518
-0.22244
-0.226486
-0.229705
-0.232311
-0.234322
-0.235748
-0.236626
-0.236989
-0.236923
-0.236474
-0.235642
-0.234449
-0.23291
0.0656084
0.0570481
0.0490527
0.0408717
0.031865
0.0229556
0.0129056
0.00260196
-0.0081159
-0.0197946
-0.0317234
-0.0438553
-0.0564494
-0.0695834
-0.0821053
-0.0947052
-0.107292
-0.11967
-0.131277
-0.14221
-0.15272
-0.162623
-0.171788
-0.179879
-0.187188
-0.193833
-0.199753
-0.204908
-0.209247
-0.212801
-0.215771
-0.218166
-0.219991
-0.221274
-0.222039
-0.222366
-0.222303
-0.221849
-0.221022
-0.219835
0.0598532
0.0520653
0.0447842
0.0373557
0.0292092
0.0211761
0.0121509
0.00291815
-0.00665995
-0.0170795
-0.0277296
-0.0385693
-0.049826
-0.0616113
-0.0729066
-0.0843215
-0.0957752
-0.10712
-0.117854
-0.128049
-0.137926
-0.14731
-0.156092
-0.163944
-0.171116
-0.17771
-0.183659
-0.188918
-0.193429
-0.197203
-0.200429
-0.203106
-0.205237
-0.20684
-0.207931
-0.208583
-0.208845
-0.208714
-0.208205
-0.207325
0.0547313
0.0476086
0.040939
0.0341499
0.0267319
0.0194345
0.0112693
0.00293348
-0.00569237
-0.0150559
-0.0246277
-0.0343721
-0.0444884
-0.0551063
-0.0653262
-0.0756868
-0.0861164
-0.0965038
-0.106406
-0.115875
-0.125107
-0.13394
-0.142285
-0.149824
-0.156777
-0.163227
-0.169108
-0.174371
-0.178954
-0.182852
-0.186242
-0.189115
-0.191469
-0.193316
-0.194663
-0.195578
-0.196107
-0.196246
-0.196008
-0.195393
0.0501552
0.0436117
0.0374721
0.0312339
0.0244413
0.0177706
0.0103373
0.00276257
-0.00505743
-0.0135254
-0.0221795
-0.0309884
-0.040127
-0.0497327
-0.0590096
-0.0684354
-0.0779462
-0.0874595
-0.0965835
-0.105358
-0.113957
-0.122234
-0.130113
-0.137297
-0.143975
-0.150218
-0.155959
-0.161151
-0.165728
-0.169674
-0.173151
-0.176147
-0.178652
-0.180676
-0.182218
-0.18334
-0.184084
-0.184444
-0.184433
-0.184042
0.0460526
0.0400179
0.0343428
0.0285846
0.0223354
0.0162055
0.00940238
0.00248152
-0.00464843
-0.0123489
-0.0202146
-0.0282181
-0.0365132
-0.0452375
-0.0536865
-0.0622843
-0.070974
-0.0796947
-0.0881005
-0.0962223
-0.104215
-0.111946
-0.119353
-0.126158
-0.132527
-0.138521
-0.144074
-0.149138
-0.15365
-0.157584
-0.161087
-0.164144
-0.166742
-0.168886
-0.17057
-0.171847
-0.172758
-0.173297
-0.173471
-0.173267
0.0423631
0.0367792
0.0315146
0.026179
0.0204068
0.014749
0.00849446
0.00214113
-0.00439171
-0.0114281
-0.0186105
-0.0259152
-0.0334774
-0.0414309
-0.0491509
-0.0570144
-0.064971
-0.0729758
-0.0807235
-0.0882383
-0.0956589
-0.102865
-0.109806
-0.116226
-0.12227
-0.127989
-0.13332
-0.138218
-0.14262
-0.146496
-0.149976
-0.153045
-0.155687
-0.157903
-0.159681
-0.161071
-0.162108
-0.162786
-0.163108
-0.163058
0.0390363
0.0338544
0.0289557
0.0239953
0.0186453
0.0134035
0.00763119
0.00177513
-0.00423607
-0.0106927
-0.0172782
-0.023972
-0.030893
-0.0381689
-0.0452444
-0.0524557
-0.0597573
-0.0671165
-0.0742636
-0.0812181
-0.0881036
-0.0948115
-0.101303
-0.107341
-0.113054
-0.118485
-0.123574
-0.128279
-0.13254
-0.136322
-0.139743
-0.142784
-0.14543
-0.147678
-0.149513
-0.150978
-0.152106
-0.152888
-0.153327
-0.1534
0.0360291
0.0312079
0.0266377
0.0220129
0.0170394
0.0121671
0.00682201
0.00140562
-0.0041457
-0.0100921
-0.0161522
-0.022308
-0.0286646
-0.0353417
-0.0418452
-0.0484751
-0.0551905
-0.0619676
-0.0685679
-0.0750071
-0.0813958
-0.0876364
-0.0936979
-0.0993652
-0.104749
-0.109887
-0.114725
-0.11922
-0.123318
-0.12698
-0.130313
-0.133298
-0.135916
-0.138163
-0.140024
-0.141533
-0.142721
-0.143578
-0.144105
-0.144275
0.0333046
0.0288089
0.0245353
0.020213
0.0155776
0.0110361
0.00607205
0.0010471
-0.00409573
-0.00958973
-0.0151842
-0.0208634
-0.0267199
-0.0328652
-0.0388587
-0.0449686
-0.0511579
-0.0574097
-0.0635124
-0.069479
-0.0754083
-0.0812126
-0.0868679
-0.0921781
-0.0972405
-0.102089
-0.106671
-0.110948
-0.114868
-0.118393
-0.121618
-0.124523
-0.127089
-0.129311
-0.131169
-0.132697
-0.133919
-0.134826
-0.135418
-0.135661
0.0308313
0.0266308
0.0226264
0.0185782
0.0142485
0.0100051
0.0053832
0.000708872
-0.00406896
-0.00915936
-0.0143385
-0.0195926
-0.0250035
-0.0306739
-0.0362106
-0.0418537
-0.0475697
-0.0533466
-0.0589964
-0.0645298
-0.0700352
-0.0754341
-0.0807077
-0.0856778
-0.0904304
-0.094995
-0.0993229
-0.103379
-0.107114
-0.110491
-0.113593
-0.116401
-0.118897
-0.121072
-0.122908
-0.124433
-0.125669
-0.126605
-0.12724
-0.127537
0.0285819
0.0246502
0.0208916
0.0170928
0.0130407
0.00906745
0.00475481
0.000396669
-0.00405286
-0.0087811
-0.0135876
-0.0184605
-0.0234722
-0.0287168
-0.0338428
-0.0390652
-0.0443537
-0.0497001
-0.0549373
-0.0600739
-0.065189
-0.0702122
-0.0751287
-0.0797772
-0.0842336
-0.0885239
-0.0926032
-0.0964389
-0.0999861
-0.103207
-0.106177
-0.108877
-0.111288
-0.113402
-0.1152
-0.116704
-0.117936
-0.118884
-0.119545
-0.11988
0.0265327
0.0228467
0.0193132
0.0157429
0.0119439
0.00821684
0.00418499
0.000113555
-0.00403893
-0.00844037
-0.0129109
-0.0174402
-0.0220925
-0.0269537
-0.0317092
-0.0365514
-0.0414528
-0.0464079
-0.0512682
-0.0560409
-0.0607968
-0.0654721
-0.0700558
-0.0744016
-0.0785768
-0.0826041
-0.0864425
-0.0900619
-0.0934209
-0.0964827
-0.0993153
-0.101899
-0.104216
-0.106257
-0.108004
-0.109476
-0.110689
-0.111634
-0.112307
-0.112666
0.0246629
0.0212024
0.0178761
0.0145157
0.0109487
0.00744695
0.00367117
-0.000139315
-0.00402187
-0.008127
-0.0122931
-0.0165113
-0.0208385
-0.0253527
-0.0297722
-0.0342697
-0.0388198
-0.0434189
-0.0479344
-0.0523729
-0.0567977
-0.0611514
-0.0654253
-0.0694872
-0.0733968
-0.0771736
-0.0807803
-0.0841895
-0.0873632
-0.0902658
-0.0929581
-0.0954211
-0.0976376
-0.0995984
-0.101285
-0.102712
-0.103897
-0.104828
-0.105501
-0.105872
0.0229545
0.0197016
0.0165665
0.0133997
0.010046
0.0067514
0.00321018
-0.000361686
-0.00399791
-0.0078332
-0.0117223
-0.0156576
-0.0196895
-0.0238887
-0.0280025
-0.032186
-0.0364162
-0.0406906
-0.0448906
-0.049022
-0.0531417
-0.0571977
-0.0611835
-0.0649797
-0.068639
-0.0721784
-0.075564
-0.0787705
-0.0817633
-0.0845086
-0.0870603
-0.0894004
-0.0915125
-0.0933873
-0.0950063
-0.0963828
-0.0975305
-0.0984384
-0.0991015
-0.0994755
0.0213914
0.0183302
0.0153723
0.0123846
0.00922779
0.00612427
0.00279852
-0.00055432
-0.00396471
-0.0075533
-0.0111895
-0.0148665
-0.0186291
-0.0225413
-0.0263762
-0.0302731
-0.0342109
-0.0381881
-0.0420987
-0.0459479
-0.0497862
-0.0535669
-0.0572849
-0.0608326
-0.0642566
-0.0675719
-0.0707471
-0.0737594
-0.0765771
-0.0791683
-0.0815812
-0.0837984
-0.0858043
-0.0875896
-0.0891368
-0.0904564
-0.0915605
-0.0924384
-0.0930846
-0.0934539
0.0199597
0.0170759
0.0142824
0.0114609
0.00848639
0.00555981
0.00243276
-0.000718396
-0.00392102
-0.0072833
-0.0106875
-0.0141279
-0.0176442
-0.021294
-0.0248735
-0.028508
-0.0321782
-0.0358829
-0.0395276
-0.0431166
-0.0466953
-0.0502212
-0.0536906
-0.0570061
-0.0602094
-0.0633134
-0.0662893
-0.0691164
-0.0717657
-0.0742073
-0.0764842
-0.0785799
-0.0804795
-0.0821738
-0.0836461
-0.084905
-0.085961
-0.0868037
-0.0874272
-0.0877859
0.0186468
0.0159275
0.013287
0.0106203
0.00781502
0.00505262
0.00210933
-0.000855399
-0.00386627
-0.00702025
-0.0102112
-0.0134341
-0.0167243
-0.0201336
-0.0234786
-0.0268722
-0.0302964
-0.0337509
-0.0371509
-0.0405
-0.0438387
-0.0471287
-0.0503671
-0.053466
-0.0564624
-0.0593675
-0.0621552
-0.0648062
-0.0672943
-0.0695916
-0.0717364
-0.073713
-0.0755073
-0.0771104
-0.0785064
-0.0797023
-0.0807071
-0.0815108
-0.0821073
-0.0824508
0.0174416
0.0148753
0.0123776
0.00985536
0.00720742
0.00459778
0.00182493
-0.000966977
-0.00380042
-0.00676215
-0.00975639
-0.0127788
-0.0158609
-0.0190489
-0.0221782
-0.02535
-0.0285479
-0.0317721
-0.0349464
-0.0380739
-0.0411906
-0.0442621
-0.0472858
-0.0501825
-0.0529852
-0.0557036
-0.0583136
-0.0607979
-0.0631324
-0.0652911
-0.0673082
-0.069169
-0.07086
-0.0723727
-0.0736922
-0.0748238
-0.0757755
-0.0765376
-0.077104
-0.0774288
0.0163343
0.0139105
0.0115463
0.00915913
0.00665787
0.00419076
0.00157641
-0.00105497
-0.00372377
-0.00650763
-0.00932004
-0.0121572
-0.015047
-0.0180309
-0.0209611
-0.0239283
-0.0269178
-0.0299297
-0.0328955
-0.0358179
-0.0387291
-0.0415978
-0.044422
-0.0471302
-0.0497516
-0.0522947
-0.0547374
-0.057064
-0.0592525
-0.0612787
-0.0631731
-0.0649219
-0.0665123
-0.0679363
-0.0691798
-0.0702469
-0.0711446
-0.0718635
-0.0723976
-0.0727012
0.0153162
0.0130254
0.0107862
0.00852541
0.00616113
0.00382731
0.00136062
-0.00112131
-0.00363693
-0.00625574
-0.00889957
-0.011565
-0.0142768
-0.0170722
-0.0198181
-0.0225963
-0.0253934
-0.0282092
-0.0309822
-0.0337145
-0.0364352
-0.0391157
-0.0417544
-0.0442866
-0.0467384
-0.049117
-0.0514026
-0.0535803
-0.0556303
-0.0575303
-0.0593072
-0.0609482
-0.0624413
-0.0637789
-0.0649476
-0.0659507
-0.0667942
-0.0674691
-0.0679694
-0.0682501
0.0143792
0.0122127
0.0100908
0.00794857
0.00571251
0.00350355
0.00117468
-0.00116777
-0.00354054
-0.00600585
-0.00849303
-0.010999
-0.0135458
-0.0161666
-0.0187419
-0.0213452
-0.0239641
-0.0265984
-0.0291928
-0.0317489
-0.0342927
-0.0367983
-0.0392643
-0.0416322
-0.0439254
-0.04615
-0.0482877
-0.0503252
-0.0522442
-0.0540241
-0.055689
-0.0572267
-0.0586261
-0.0598799
-0.0609756
-0.0619158
-0.0627055
-0.0633362
-0.0638021
-0.0640586
0.0135162
0.0114661
0.00945438
0.00742358
0.00530775
0.00321598
0.00101602
-0.00119607
-0.00343546
-0.00575772
-0.00809898
-0.0104565
-0.01285
-0.015309
-0.0177259
-0.020167
-0.0226209
-0.025087
-0.0275155
-0.029908
-0.0322874
-0.0346304
-0.0369356
-0.0391502
-0.041295
-0.0433753
-0.0453742
-0.0472796
-0.0490748
-0.0507409
-0.0522991
-0.0537382
-0.0550477
-0.0562207
-0.0572457
-0.0581244
-0.0588611
-0.0594479
-0.0598791
-0.0601108
0.0127209
0.01078
0.00887185
0.00694591
0.00494299
0.00296137
0.000882155
-0.00120789
-0.00332247
-0.00551117
-0.0077163
-0.00993554
-0.0121863
-0.0144951
-0.0167649
-0.0190554
-0.0213558
-0.0236658
-0.0259403
-0.0281806
-0.0304072
-0.0325988
-0.0347541
-0.0368255
-0.0388314
-0.0407765
-0.0426452
-0.0444263
-0.0461048
-0.047663
-0.0491199
-0.0504651
-0.0516887
-0.0527842
-0.0537409
-0.0545599
-0.0552448
-0.0557884
-0.056185
-0.0563916
0.0119874
0.0101491
0.00833861
0.00651146
0.00461463
0.00273669
0.000770746
-0.00120482
-0.00320235
-0.00526622
-0.00734426
-0.00943445
-0.0115524
-0.0137213
-0.0158542
-0.0180044
-0.0201623
-0.0223271
-0.0244583
-0.0265569
-0.0286411
-0.0306917
-0.0327074
-0.034645
-0.036521
-0.0383393
-0.0400858
-0.0417501
-0.0433185
-0.0447748
-0.0461357
-0.0473917
-0.0485333
-0.0495547
-0.0504457
-0.051207
-0.0518417
-0.0523431
-0.0527056
-0.0528871
0.0113105
0.00956867
0.00785039
0.00611646
0.00431943
0.00253918
0.00067963
-0.00118841
-0.00307612
-0.00502315
-0.00698237
-0.00895202
-0.0109459
-0.0129847
-0.0149898
-0.0170094
-0.0190345
-0.0210641
-0.0230618
-0.0250283
-0.0269799
-0.028899
-0.0307843
-0.0325969
-0.0343513
-0.0360509
-0.0376828
-0.0392374
-0.0407021
-0.0420621
-0.0433322
-0.0445035
-0.0455673
-0.0465178
-0.0473459
-0.0480518
-0.048638
-0.0490983
-0.0494274
-0.049584
0.0106855
0.0090345
0.0074033
0.00575744
0.00405446
0.00236634
0.000606821
-0.00116019
-0.0029448
-0.00478236
-0.00663034
-0.00848721
-0.0103652
-0.0122824
-0.0141683
-0.016066
-0.0179671
-0.0198708
-0.021744
-0.0235873
-0.0254151
-0.0272115
-0.0289751
-0.0306708
-0.0323114
-0.0338998
-0.0354242
-0.0368757
-0.0382429
-0.0395121
-0.0406964
-0.0417875
-0.0427773
-0.0436605
-0.0444285
-0.0450812
-0.0456207
-0.0460414
-0.0463379
-0.04647
0.0101079
0.0085426
0.00699376
0.00543119
0.00381694
0.0022158
0.000550416
-0.00112157
-0.00280928
-0.0045442
-0.00628793
-0.00803912
-0.00980857
-0.0116122
-0.0133866
-0.0151704
-0.0169559
-0.018742
-0.0204989
-0.0222271
-0.0239394
-0.0256212
-0.0272711
-0.0288574
-0.0303915
-0.0318757
-0.0332993
-0.0346541
-0.0359296
-0.0371132
-0.0382165
-0.0392316
-0.0401514
-0.0409706
-0.0416814
-0.0422833
-0.0427782
-0.0431606
-0.0434256
-0.0435338
0.00957389
0.00808941
0.00661852
0.00513478
0.00360429
0.00208537
0.000508648
-0.00107387
-0.0026704
-0.00430897
-0.00595488
-0.00760692
-0.00927465
-0.0109721
-0.012642
-0.0143192
-0.0159966
-0.0176729
-0.0193212
-0.0209419
-0.0225462
-0.0241209
-0.0256645
-0.0271485
-0.0285829
-0.0299695
-0.0312986
-0.0325625
-0.0337518
-0.0348548
-0.0358816
-0.0368252
-0.0376787
-0.0384373
-0.0390937
-0.0396471
-0.0400993
-0.0404451
-0.0406797
-0.0407645
0.00907981
0.00767169
0.00627463
0.00486556
0.00341421
0.00197305
0.000479927
-0.00101826
-0.0025289
-0.00407692
-0.00563093
-0.00718986
-0.00876217
-0.0103601
-0.0119322
-0.0135096
-0.0150858
-0.0166595
-0.0182062
-0.0197262
-0.0212295
-0.0227041
-0.0241484
-0.0255366
-0.0268775
-0.0281728
-0.0294132
-0.0305919
-0.0317001
-0.0327272
-0.0336821
-0.0345582
-0.0353491
-0.0360503
-0.0366551
-0.0371626
-0.037574
-0.0378847
-0.0380901
-0.0381523
0.00862244
0.00728648
0.00595939
0.00462109
0.00324459
0.00187704
0.000462806
-0.000955816
-0.00238548
-0.00384829
-0.00531589
-0.00678731
-0.00827
-0.00977465
-0.011255
-0.0127389
-0.0142203
-0.0156979
-0.0171496
-0.0185754
-0.0199842
-0.0213651
-0.0227164
-0.0240149
-0.0252684
-0.026478
-0.0276353
-0.028734
-0.0297661
-0.0307218
-0.031609
-0.0324216
-0.0331534
-0.0338005
-0.0343564
-0.0348202
-0.0351929
-0.0354701
-0.0356475
-0.035688
0.0081988
0.0069311
0.00567037
0.00439918
0.00309349
0.00179568
0.000455964
-0.000887529
-0.00224076
-0.00362334
-0.00500961
-0.00639869
-0.00779716
-0.0092143
-0.0106085
-0.0120047
-0.0133973
-0.0147849
-0.0161475
-0.0174851
-0.0188055
-0.0200987
-0.0213631
-0.0225775
-0.0237489
-0.0248783
-0.0259577
-0.0269815
-0.0279421
-0.0288307
-0.0296543
-0.030407
-0.0310832
-0.0316791
-0.0321889
-0.0326113
-0.0329473
-0.0331928
-0.0333434
-0.0333631
0.0078062
0.0066031
0.00540533
0.00419784
0.0029592
0.00172748
0.000458198
-0.0008143
-0.00209534
-0.0034023
-0.00471197
-0.00602353
-0.00734278
-0.00867774
-0.00999102
-0.0113049
-0.0126142
-0.0139175
-0.0151966
-0.0164515
-0.0176891
-0.0189001
-0.0200831
-0.0212188
-0.0223134
-0.0233675
-0.0243739
-0.0253274
-0.0262209
-0.0270466
-0.0278103
-0.0285067
-0.0291307
-0.0296784
-0.0301446
-0.030528
-0.0308293
-0.0310446
-0.0311698
-0.0311696
0.00744216
0.00630025
0.00516226
0.00401522
0.0028401
0.00167108
0.000468406
-0.000736956
-0.00194977
-0.0031854
-0.00442286
-0.00566138
-0.00690606
-0.00816381
-0.009401
-0.0106375
-0.0118687
-0.0130929
-0.0142938
-0.0154711
-0.0166311
-0.0177652
-0.0188719
-0.0199338
-0.0209564
-0.0219399
-0.022878
-0.0237655
-0.0245962
-0.0253627
-0.0260703
-0.0267138
-0.0272885
-0.0277909
-0.0282161
-0.0285628
-0.0288313
-0.0290182
-0.0291193
-0.0291003
0.00710444
0.0060205
0.00493928
0.00384967
0.00273476
0.00162522
0.000485587
-0.000656254
-0.00180455
-0.00297285
-0.0041422
-0.00531186
-0.0064863
-0.00767144
-0.00883706
-0.0100009
-0.0111586
-0.0123086
-0.0134361
-0.0145408
-0.0156279
-0.0166899
-0.0177251
-0.0187179
-0.019673
-0.0205905
-0.0214644
-0.0222902
-0.023062
-0.023773
-0.0244278
-0.0250217
-0.0255502
-0.0260101
-0.0263967
-0.0267089
-0.0269467
-0.0271068
-0.0271852
-0.0271485
0.00679097
0.00576198
0.0047347
0.00369965
0.00264184
0.00158876
0.000508822
-0.000572885
-0.00166012
-0.00276485
-0.00386991
-0.00497462
-0.00608285
-0.00719968
-0.00829793
-0.00939343
-0.0104822
-0.0115625
-0.0126211
-0.0136575
-0.0146763
-0.0156707
-0.016639
-0.017567
-0.0184587
-0.0193143
-0.0201282
-0.0208961
-0.0216127
-0.0222717
-0.022877
-0.0234244
-0.0239096
-0.0243296
-0.0246802
-0.0249599
-0.0251689
-0.0253039
-0.0253611
-0.0253079
0.00649984
0.00552297
0.00454696
0.00356378
0.00256012
0.00156068
0.000537275
-0.000487477
-0.00151692
-0.00256157
-0.00360593
-0.00464932
-0.00569513
-0.00674765
-0.00778246
-0.00881366
-0.00983756
-0.0108525
-0.0118463
-0.0128186
-0.0137734
-0.0147044
-0.0156099
-0.0164771
-0.0173095
-0.0181071
-0.0188647
-0.0195784
-0.0202433
-0.0208535
-0.0214126
-0.0219164
-0.0223611
-0.0227438
-0.0230606
-0.02331
-0.023492
-0.0236036
-0.0236411
-0.0235727
0.00622932
0.00530191
0.00437464
0.00344076
0.00248852
0.00154001
0.000570185
-0.000400605
-0.00137531
-0.00236317
-0.00335018
-0.00433568
-0.00532259
-0.00631453
-0.00728957
-0.00826025
-0.00922316
-0.0101766
-0.0111096
-0.0120217
-0.0129164
-0.0137879
-0.0146346
-0.0154448
-0.0162216
-0.0169648
-0.0176697
-0.0183326
-0.0189491
-0.0195137
-0.0200294
-0.0204925
-0.0208994
-0.0212472
-0.0215325
-0.0217537
-0.0219106
-0.0220005
-0.0220197
-0.0219374
0.0059778
0.00509734
0.00421643
0.00332945
0.002426
0.00152589
0.000606858
-0.000312788
-0.00123564
-0.0021698
-0.00310259
-0.00403338
-0.0049647
-0.00589957
-0.00681828
-0.00773196
-0.00863749
-0.00953314
-0.010409
-0.0112646
-0.0121029
-0.0129186
-0.01371
-0.0144668
-0.0151914
-0.0158837
-0.0165393
-0.0171546
-0.0177258
-0.0182477
-0.0187229
-0.019148
-0.0195195
-0.0198348
-0.0200907
-0.0202857
-0.0204194
-0.0204893
-0.0204917
-0.020397
0.00574382
0.00490794
0.00407113
0.00322875
0.00237164
0.00151753
0.000646667
-0.000224488
-0.0010982
-0.00198156
-0.00286308
-0.00374217
-0.004621
-0.00550207
-0.00636766
-0.00722767
-0.00807918
-0.0089205
-0.00974264
-0.0105451
-0.0113304
-0.0120937
-0.0128334
-0.01354
-0.0142158
-0.0148603
-0.0154697
-0.0160406
-0.0165693
-0.0170513
-0.0174887
-0.0178782
-0.0182168
-0.0185019
-0.0187305
-0.0189012
-0.0190136
-0.019065
-0.0190523
-0.0189466
0.00552602
0.00473248
0.00393763
0.00313769
0.00232459
0.00151422
0.000689039
-0.000136127
-0.000963262
-0.00179854
-0.00263158
-0.00346179
-0.00429104
-0.00512138
-0.00593687
-0.0067463
-0.00754695
-0.00833717
-0.0091088
-0.00986127
-0.0105968
-0.011311
-0.0120021
-0.0126617
-0.0132917
-0.0138915
-0.0144576
-0.0149869
-0.0154759
-0.0159206
-0.0163226
-0.0166791
-0.016987
-0.017244
-0.0174474
-0.0175957
-0.0176884
-0.0177231
-0.0176967
-0.0175815
0.00532316
0.00456984
0.00381492
0.00305536
0.00228408
0.00151528
0.000733452
-4.80879e-05
-0.000831055
-0.00162082
-0.002408
-0.00319199
-0.00397441
-0.00475688
-0.00552512
-0.00628686
-0.00703962
-0.00778175
-0.00850587
-0.00921138
-0.0099002
-0.0105682
-0.0112138
-0.0118293
-0.0124162
-0.0129742
-0.0134997
-0.0139901
-0.0144421
-0.0148519
-0.015221
-0.0155466
-0.015826
-0.016057
-0.0162371
-0.0163647
-0.0164395
-0.0164591
-0.0164205
-0.0162973
0.00513407
0.00441898
0.00370207
0.00298094
0.00224939
0.00152012
0.000779432
3.92847e-05
-0.000701797
-0.00144848
-0.00219224
-0.00293253
-0.00367069
-0.00440801
-0.00513164
-0.00584842
-0.00655606
-0.00725294
-0.00793235
-0.0085937
-0.00923859
-0.00986322
-0.0104661
-0.0110402
-0.0115869
-0.0121056
-0.0125932
-0.0130472
-0.0134646
-0.0138419
-0.0141802
-0.0144771
-0.01473
-0.014937
-0.0150955
-0.0152042
-0.0152627
-0.0152687
-0.0152194
-0.0150897
0.0049577
0.00427895
0.00359822
0.00291366
0.00221987
0.0015282
0.00082655
0.000125681
-0.000575674
-0.00128154
-0.00198423
-0.00268318
-0.0033795
-0.00407419
-0.00475572
-0.00543011
-0.00609523
-0.0067495
-0.00738685
-0.00800666
-0.00861026
-0.00919418
-0.00975694
-0.0102922
-0.0108011
-0.0112831
-0.0117353
-0.0121553
-0.0125403
-0.0128871
-0.0131969
-0.0134671
-0.0136955
-0.0138801
-0.0140188
-0.0141103
-0.0141539
-0.0141478
-0.0140892
-0.0139544
0.00479307
0.00414887
0.00350257
0.00285282
0.00219492
0.00153901
0.000874416
0.000210823
-0.000452846
-0.00112006
-0.00178386
-0.00244369
-0.00310046
-0.00375491
-0.00439669
-0.0050311
-0.00565614
-0.0062703
-0.00686806
-0.00744879
-0.00801357
-0.00855924
-0.00908436
-0.00958322
-0.0100567
-0.0105043
-0.0109233
-0.0113114
-0.0116662
-0.0119848
-0.0122678
-0.0125133
-0.0127189
-0.012883
-0.0130035
-0.0130791
-0.0131094
-0.0130925
-0.0130259
-0.0128873
0.00463927
0.00402792
0.0034144
0.00279779
0.00217399
0.00155208
0.000922677
0.000294465
-0.000333453
-0.000964053
-0.00159103
-0.00221383
-0.00283322
-0.00344967
-0.00405391
-0.0046506
-0.00523786
-0.00581425
-0.00637474
-0.00691868
-0.00744697
-0.0079567
-0.00844649
-0.00891118
-0.0093515
-0.00976686
-0.0101548
-0.0105132
-0.0108398
-0.0111319
-0.0113901
-0.0116125
-0.011797
-0.0119421
-0.0120459
-0.0121071
-0.0121254
-0.012099
-0.0120256
-0.0118842
0.00449548
0.00391536
0.00333304
0.00274796
0.00215659
0.00156702
0.000971016
0.000376387
-0.000217613
-0.000813522
-0.00140563
-0.0019934
-0.00257742
-0.00315799
-0.00372678
-0.00428787
-0.00483953
-0.00538033
-0.00590572
-0.00641503
-0.00690901
-0.00738498
-0.00784161
-0.00827424
-0.00868343
-0.0090686
-0.00942747
-0.00975809
-0.0100583
-0.0103258
-0.0105609
-0.0107619
-0.0109269
-0.0110544
-0.0111427
-0.0111908
-0.0111983
-0.0111634
-0.0110843
-0.0109411
0.0043609
0.00381049
0.00325787
0.00270281
0.00214225
0.00158344
0.00101915
0.000456395
-0.000105425
-0.000668466
-0.00122756
-0.00178215
-0.00233272
-0.00287941
-0.00341472
-0.00394221
-0.00446029
-0.00496757
-0.00545989
-0.00593662
-0.00639834
-0.00684259
-0.0072681
-0.00767064
-0.00805065
-0.00840753
-0.00873919
-0.00904383
-0.00931945
-0.00956387
-0.00977747
-0.00995856
-0.0101054
-0.0102168
-0.010291
-0.010327
-0.0103247
-0.0102824
-0.0101984
-0.0100541
0.00423486
0.00371267
0.00318832
0.00266183
0.00213056
0.001601
0.00106681
0.000534319
3.03052e-06
-0.000528866
-0.00105669
-0.00157988
-0.00209881
-0.00261348
-0.00311716
-0.00361296
-0.00409936
-0.00457504
-0.00503623
-0.0054823
-0.00591368
-0.00632813
-0.00672442
-0.00709872
-0.00745136
-0.00778173
-0.00808792
-0.00836825
-0.00862088
-0.00884383
-0.00903736
-0.00919993
-0.00933
-0.00942632
-0.00948748
-0.0095126
-0.00950134
-0.00945245
-0.00936434
-0.00921955
0.00411664
0.00362131
0.00312386
0.00262456
0.00212113
0.00161938
0.00111378
0.000610009
0.000107689
-0.000394695
-0.000892897
-0.00138637
-0.00187537
-0.0023598
-0.00283361
-0.00329948
-0.003756
-0.00420191
-0.00463377
-0.00505097
-0.00545384
-0.00584028
-0.00620913
-0.00655692
-0.00688388
-0.00718941
-0.00747174
-0.00772932
-0.00796047
-0.00816336
-0.00833818
-0.00848352
-0.00859796
-0.00868038
-0.00872951
-0.00874453
-0.00872518
-0.00867035
-0.00857867
-0.0084337
0.00400567
0.00353586
0.00306402
0.00259057
0.00211361
0.00163831
0.00115984
0.000683334
0.000208497
-0.00026592
-0.000736071
-0.00120141
-0.0016621
-0.00211795
-0.00256354
-0.00300116
-0.00342951
-0.00384736
-0.00425161
-0.00464164
-0.00501768
-0.0053778
-0.00572087
-0.00604377
-0.00634664
-0.00662889
-0.00688887
-0.00712515
-0.0073362
-0.00752035
-0.00767771
-0.00780698
-0.00790688
-0.00797639
-0.00801435
-0.00802006
-0.00799328
-0.00793304
-0.00783819
-0.00769323
0.00390133
0.0034558
0.00300833
0.00255949
0.00210768
0.00165751
0.00120482
0.000754179
0.000305414
-0.000142505
-0.000586088
-0.0010248
-0.00145871
-0.00188757
-0.00230649
-0.00271745
-0.00311923
-0.00351064
-0.00388887
-0.00425332
-0.00460412
-0.00493949
-0.00525836
-0.00555789
-0.00583815
-0.00609856
-0.0063376
-0.00655396
-0.0067462
-0.00691281
-0.00705385
-0.00716813
-0.00725448
-0.00731195
-0.00733953
-0.00733658
-0.00730292
-0.00723769
-0.00713992
-0.00699493
0.00380314
0.00338068
0.00295639
0.00253096
0.00210304
0.00167677
0.00124853
0.000822443
0.000398408
-2.44038e-05
-0.000442828
-0.000856327
-0.00126492
-0.00166827
-0.00206199
-0.00244779
-0.0028245
-0.00319101
-0.00354474
-0.00388511
-0.00421216
-0.00452426
-0.00482039
-0.00509798
-0.00535702
-0.00559694
-0.00581636
-0.00601404
-0.00618867
-0.00633887
-0.00646465
-0.00656492
-0.00663859
-0.00668483
-0.00670271
-0.00669167
-0.00665156
-0.00658164
-0.00648109
-0.00633594
0.00371057
0.00331006
0.00290781
0.00250464
0.00209943
0.00169586
0.00129083
0.000888042
0.000487461
8.8434e-05
-0.000306167
-0.00069581
-0.00108045
-0.0014597
-0.00182963
-0.00219167
-0.00254475
-0.00288778
-0.00321843
-0.00353612
-0.00384083
-0.00413107
-0.00440583
-0.0046628
-0.00490193
-0.00512264
-0.00532365
-0.00550383
-0.00566197
-0.0057968
-0.00590828
-0.00599543
-0.00605725
-0.00609296
-0.00610175
-0.00608309
-0.0060369
-0.00596249
-0.00585919
-0.00571365
0.00362319
0.00324352
0.00286224
0.00248024
0.00209659
0.00171459
0.00133158
0.000950902
0.000572563
0.000196065
-0.00017598
-0.000543048
-0.000905039
-0.00126152
-0.00160897
-0.0019486
-0.00227939
-0.0026003
-0.00290921
-0.00320555
-0.00348925
-0.00375892
-0.00401361
-0.00425122
-0.00447164
-0.00467433
-0.00485809
-0.00502186
-0.00516454
-0.00528496
-0.00538305
-0.0054579
-0.00550859
-0.00553442
-0.00553465
-0.0055088
-0.0054568
-0.00537805
-0.00527196
-0.00512575
0.00354055
0.00318069
0.00281935
0.00245746
0.00209429
0.0017328
0.00137068
0.00101096
0.000653711
0.000298551
-5.21421e-05
-0.00039785
-0.000738425