/*--------------------------------*- C++ -*----------------------------------*\
| =========                 |                                                 |
| \\      /  F ield         | OpenFOAM: The Open Source CFD Toolbox           |
|  \\    /   O peration     | Version:  3.0.1                                 |
|   \\  /    A nd           | Web:      www.OpenFOAM.org                      |
|    \\/     M anipulation  |                                                 |
\*---------------------------------------------------------------------------*/
FoamFile
{
    version     2.0;
    format      ascii;
    class       surfaceScalarField;
    location    "500";
    object      phi;
}
// * * * * * * * * * * * * * * * * * * * * * * * * * * * * * * * * * * * * * //

dimensions      [0 3 -1 0 0 0 0];

internalField   nonuniform List<scalar> 
115520
(
0.0127845
-0.00170569
-0.0110788
0.0140239
-0.00123945
0.0143648
-0.00034082
0.014226
0.00013876
0.0138331
0.000392936
0.0132692
0.000563817
0.0127306
0.000538657
0.012236
0.000494609
0.0117742
0.000461721
0.0114341
0.000340176
0.0112077
0.000226399
0.0110495
0.000158151
0.0109572
9.23557e-05
0.0109696
-1.24504e-05
0.0110299
-6.02602e-05
0.0111201
-9.02041e-05
0.0112307
-0.000110641
0.0113688
-0.000138079
0.0115236
-0.000154837
0.0116781
-0.000154458
0.0118274
-0.00014933
0.0119681
-0.0001407
0.0121085
-0.000140397
0.0122408
-0.000132303
0.0123591
-0.000118298
0.0124623
-0.00010322
0.0125496
-8.72413e-05
0.0126233
-7.37296e-05
0.0126868
-6.3535e-05
0.0127321
-4.52556e-05
0.0127583
-2.62048e-05
0.012764
-5.68388e-06
0.0127473
1.67337e-05
0.012707
4.03065e-05
0.0126231
8.38528e-05
0.0125019
0.000121173
0.0123619
0.000140056
0.0122198
0.000142034
0.0120939
0.000125909
9.66608e-05
0.0119973
0.00799221
-0.00286055
-0.00683734
0.00903384
-0.00228109
0.0100272
-0.00133419
0.0109313
-0.000765291
0.0117132
-0.000388979
0.0123438
-6.6851e-05
0.0128354
4.71403e-05
0.0132039
0.000126078
0.0134496
0.000216025
0.0136321
0.00015764
0.0137704
8.8128e-05
0.0138541
7.44303e-05
0.0138972
4.92276e-05
0.0139696
-8.48543e-05
0.0140359
-0.000126558
0.0140957
-0.000149966
0.0141526
-0.000167504
0.0142317
-0.000217172
0.0143251
-0.000248251
0.0144157
-0.000245112
0.0145031
-0.000236669
0.0145858
-0.000223394
0.0146794
-0.000234067
0.014771
-0.000223845
0.0148525
-0.000199798
0.0149229
-0.000173651
0.0149813
-0.000145595
0.0150311
-0.000123582
0.0150769
-0.000109352
0.0151079
-7.62557e-05
0.0151243
-4.25493e-05
0.0151271
-8.45027e-06
0.0151178
2.59699e-05
0.0151004
5.77245e-05
0.0150721
0.000112126
0.0150281
0.000165243
0.0149691
0.000199035
0.0148965
0.000214581
0.0148118
0.000210637
0.000187339
0.0147211
0.00751744
-0.00391223
-0.00646577
0.0084749
-0.00323855
0.00935401
-0.00221329
0.0101701
-0.00158134
0.0108701
-0.00108898
0.0115291
-0.000725907
0.0120867
-0.000510469
0.012573
-0.000360222
0.0129957
-0.000206675
0.0133475
-0.000194172
0.013645
-0.000209378
0.013895
-0.000175535
0.0141022
-0.00015793
0.0142961
-0.000278841
0.0144699
-0.00030034
0.0146256
-0.000305625
0.0147674
-0.00030933
0.014913
-0.000362724
0.0150597
-0.000394935
0.0151975
-0.000382993
0.0153269
-0.000366073
0.0154475
-0.00034395
0.0155709
-0.000357511
0.0156879
-0.000340777
0.0157926
-0.000304526
0.0158845
-0.000265543
0.0159628
-0.000223898
0.0160302
-0.000190952
0.0160897
-0.000168845
0.0161327
-0.000119263
0.0161589
-6.87383e-05
0.0161678
-1.73662e-05
0.0161591
3.46759e-05
0.0161354
8.13504e-05
0.0160974
0.000150183
0.0160416
0.00022105
0.0159701
0.00027047
0.0158847
0.000299995
0.0157853
0.000310039
0.000300859
0.0156718
0.00679432
-0.00480298
-0.00590356
0.00766651
-0.00411074
0.00851546
-0.00306224
0.00933821
-0.0024041
0.0100835
-0.00183423
0.0107944
-0.00143688
0.0114274
-0.00114342
0.0120031
-0.000935981
0.0125278
-0.000731317
0.0129904
-0.000656773
0.0134019
-0.000620935
0.0137688
-0.00054244
0.0140919
-0.000480954
0.0143845
-0.000571516
0.0146483
-0.0005641
0.014885
-0.000542276
0.0150977
-0.00052212
0.0152994
-0.000564361
0.0154911
-0.000586605
0.0156677
-0.000559685
0.0158305
-0.000528866
0.0159801
-0.000493492
0.016126
-0.000503452
0.0162621
-0.000476841
0.0163841
-0.00042656
0.0164918
-0.00037317
0.0165845
-0.000316687
0.0166648
-0.000271222
0.0167352
-0.000239233
0.0167887
-0.000172727
0.0168248
-0.00010492
0.0168434
-3.58924e-05
0.0168438
3.42407e-05
0.016828
9.7132e-05
0.0167963
0.000181938
0.0167449
0.000272397
0.016675
0.000340428
0.0165875
0.000387459
0.0164831
0.000414412
0.000422093
0.0163619
0.00646206
-0.00562465
-0.0056404
0.00727919
-0.00492787
0.00808919
-0.00387224
0.00889627
-0.00321117
0.0096506
-0.00258856
0.0103909
-0.00217716
0.0110666
-0.00181912
0.0116961
-0.00156545
0.0122864
-0.00132162
0.0128177
-0.00118807
0.0132988
-0.00110212
0.0137392
-0.000982787
0.0141377
-0.000879512
0.0144965
-0.000930244
0.0148233
-0.000890905
0.0151202
-0.000839185
0.0153893
-0.000791274
0.0156388
-0.000813788
0.0158711
-0.000818966
0.0160843
-0.000772846
0.0162794
-0.000724015
0.0164575
-0.00067156
0.0166263
-0.000672225
0.0167818
-0.000632307
0.016921
-0.000565818
0.0170439
-0.000496084
0.0171503
-0.000423043
0.0172421
-0.000363026
0.0173216
-0.000318753
0.0173831
-0.000234235
0.0174263
-0.000148091
0.0174508
-6.0415e-05
0.0174564
2.86671e-05
0.0174447
0.000108804
0.0174162
0.000210415
0.0173677
0.000320888
0.0172996
0.000408571
0.0172122
0.000474823
0.0171059
0.000520756
0.000547452
0.0169805
0.00622643
-0.00640498
-0.0054461
0.00700833
-0.00570978
0.00778984
-0.00465375
0.00857653
-0.00399786
0.00932868
-0.00334071
0.0100788
-0.00292731
0.0107809
-0.00252116
0.0114484
-0.00223299
0.0120873
-0.00196056
0.0126744
-0.00177515
0.0132154
-0.00164306
0.0137194
-0.00148683
0.0141842
-0.00134429
0.014604
-0.00135006
0.0149899
-0.00127678
0.0153437
-0.00119298
0.0156666
-0.00111425
0.0159631
-0.00111026
0.0162366
-0.00109244
0.0164871
-0.00102332
0.0167157
-0.000952661
0.0169236
-0.000879401
0.0171167
-0.000865345
0.0172929
-0.000808578
0.0174505
-0.000723413
0.0175895
-0.000635084
0.0177099
-0.000543446
0.0178136
-0.000466636
0.0179025
-0.000407663
0.0179721
-0.000303834
0.0180221
-0.000198143
0.0180524
-9.0692e-05
0.0180627
1.83868e-05
0.0180545
0.000116994
0.0180283
0.000236588
0.0179813
0.000367885
0.0179136
0.000476235
0.0178255
0.000562944
0.0177171
0.000629186
0.000676157
0.0175884
0.00608566
-0.00716584
-0.00532481
0.0068492
-0.00647331
0.00761389
-0.00541844
0.00838571
-0.00476969
0.00913275
-0.00408774
0.00988359
-0.00367815
0.0105983
-0.00323583
0.0112878
-0.00292255
0.0119577
-0.00263046
0.0125839
-0.00240129
0.0131695
-0.00222872
0.0137234
-0.0020407
0.0142421
-0.00186303
0.0147143
-0.00182224
0.0151525
-0.00171494
0.0155581
-0.00159859
0.0159315
-0.00148761
0.0162736
-0.00145241
0.0165883
-0.00140711
0.016877
-0.00131205
0.0171407
-0.00121639
0.0173804
-0.00111906
0.0176003
-0.00108528
0.0177999
-0.0010082
0.0179783
-0.000901793
0.0181357
-0.000792454
0.0182722
-0.00067996
0.0183894
-0.000583872
0.0184893
-0.000507539
0.0185683
-0.000382812
0.0186262
-0.000256083
0.018663
-0.000127457
0.0186785
2.92676e-06
0.018674
0.000121469
0.0186501
0.000260464
0.0186044
0.000413607
0.0185369
0.000543719
0.0184478
0.000652059
0.0183372
0.000739807
0.000808186
0.0182051
0.00600243
-0.00792003
-0.00524823
0.00675929
-0.00723018
0.00751736
-0.0061765
0.00828202
-0.00553435
0.0090274
-0.00483313
0.00977825
-0.004429
0.0105009
-0.0039585
0.0112047
-0.00362635
0.0118949
-0.00332062
0.0125487
-0.00305508
0.0131677
-0.00284777
0.0137599
-0.00263287
0.0143214
-0.00242458
0.0148376
-0.00233836
0.0153209
-0.00219829
0.0157724
-0.0020501
0.0161916
-0.00190679
0.0165767
-0.00183755
0.0169314
-0.00176177
0.017258
-0.00163868
0.0175573
-0.00151562
0.0178298
-0.00139158
0.0180782
-0.0013337
0.0183031
-0.00123313
0.0185044
-0.00110303
0.0186822
-0.000970289
0.0188369
-0.000834632
0.0189697
-0.0007167
0.0190824
-0.00062024
0.0191725
-0.000472858
0.0192398
-0.000323422
0.0192844
-0.000172037
0.0193061
-1.88439e-05
0.0193063
0.000121278
0.0192855
0.000281273
0.0192417
0.000457473
0.0191748
0.000610582
0.0190851
0.000741806
0.0189726
0.000852301
0.000943265
0.0188375
0.00596259
-0.00867644
-0.00520619
0.00672119
-0.00798877
0.00748051
-0.00693583
0.00824514
-0.00629898
0.00899362
-0.0055816
0.00974725
-0.00518264
0.0104778
-0.004689
0.0111932
-0.00434175
0.0118984
-0.00402591
0.0125731
-0.00372972
0.0132178
-0.00349249
0.0138397
-0.00325475
0.014435
-0.00301988
0.0149873
-0.00289072
0.0155088
-0.00271977
0.0159999
-0.00254119
0.0164595
-0.00236636
0.0168838
-0.00226184
0.0172758
-0.00215384
0.0176386
-0.00200147
0.0179724
-0.00184937
0.0182775
-0.00169667
0.0185549
-0.00161115
0.0188062
-0.00148438
0.0190315
-0.00132837
0.0192312
-0.00117
0.0194056
-0.00100897
0.0195556
-0.000866703
0.0196827
-0.000747375
0.0197853
-0.000575503
0.0198635
-0.000401592
0.0199172
-0.000225747
0.0199465
-4.8113e-05
0.0199524
0.000115364
0.0199356
0.000298086
0.0198944
0.000498692
0.0198288
0.00067615
0.019739
0.000831607
0.0196251
0.000966171
0.00108099
0.0194874
0.00595553
-0.00944135
-0.00519062
0.00672206
-0.0087553
0.00748872
-0.00770249
0.00825923
-0.00706949
0.00901546
-0.00633783
0.00977572
-0.0059429
0.010516
-0.00542929
0.0112433
-0.00506906
0.0119622
-0.00474484
0.0126547
-0.00442214
0.0133208
-0.00415865
0.013967
-0.00390096
0.0145898
-0.0036427
0.0151726
-0.00347352
0.0157265
-0.00327365
0.0162516
-0.00306629
0.0167464
-0.00286114
0.0172057
-0.00272117
0.017632
-0.00258016
0.0180285
-0.00239788
0.0183948
-0.00221574
0.0187312
-0.00203303
0.0190372
-0.00191717
0.0193148
-0.00176197
0.0195646
-0.00157816
0.0197868
-0.0013922
0.0199816
-0.0012038
0.0201498
-0.00103487
0.0202925
-0.000890072
0.0204089
-0.00069188
0.020499
-0.000491707
0.0205629
-0.000289658
0.0206007
-8.58863e-05
0.0206133
0.000102786
0.0206013
0.000310039
0.0205635
0.000536493
0.0204999
0.000739742
0.0204107
0.000920859
0.0202959
0.00108089
0.00122092
0.020156
0.00597462
-0.0102195
-0.00519643
0.00675383
-0.00953452
0.00753257
-0.00848123
0.00831379
-0.00785071
0.00908189
-0.00710593
0.00985261
-0.00671362
0.0106054
-0.00618204
0.0113462
-0.00580988
0.0120793
-0.00547795
0.0127887
-0.00513157
0.0134744
-0.00484439
0.0141422
-0.00456866
0.0147887
-0.00428924
0.015398
-0.00408282
0.0159801
-0.00385574
0.0165349
-0.00362107
0.0170606
-0.00338683
0.0175512
-0.00321182
0.0180087
-0.00303764
0.018436
-0.00282522
0.0188327
-0.00261246
0.0191986
-0.00239888
0.0195321
-0.00225068
0.0198354
-0.0020653
0.0201094
-0.00185211
0.020354
-0.00163687
0.0205696
-0.00141932
0.0207563
-0.00122163
0.0209152
-0.00104897
0.021046
-0.000822685
0.0211488
-0.000594493
0.0212237
-0.000364506
0.0212707
-0.000132891
0.0212906
8.28303e-05
0.0212842
0.000316447
0.0212504
0.000570252
0.0211894
0.000800792
0.0211012
0.00100906
0.0209861
0.00119603
0.00136269
0.0208443
0.00601526
-0.0110148
-0.00522004
0.00681095
-0.0103302
0.00760561
-0.00927589
0.00840151
-0.00864662
0.00918503
-0.00788945
0.00996971
-0.0074983
0.0107377
-0.00695
0.0114942
-0.00656636
0.0122429
-0.00622669
0.0129699
-0.00585853
0.0136749
-0.0055494
0.0143629
-0.00525673
0.0150313
-0.00495759
0.0156648
-0.00471629
0.0162723
-0.00446331
0.0168538
-0.00420249
0.0174072
-0.00394023
0.0179262
-0.00373084
0.0184121
-0.00352362
0.0188679
-0.003281
0.0192928
-0.00303732
0.0196862
-0.0027923
0.0200459
-0.00261033
0.020374
-0.00239339
0.0206714
-0.00214952
0.020938
-0.00190354
0.021174
-0.00165529
0.0213793
-0.00142697
0.0215547
-0.00122428
0.0217002
-0.000968229
0.021816
-0.000710328
0.0219022
-0.000450714
0.0219589
-0.000189574
0.0219867
5.50272e-05
0.0219863
0.000316839
0.0219571
0.000599535
0.0218989
0.000858904
0.0218122
0.00109585
0.0216969
0.00131126
0.00150605
0.0215536
0.00607426
-0.0118301
-0.00525889
0.00688958
-0.0111455
0.00770335
-0.0100897
0.00851726
-0.00946053
0.00931926
-0.00869144
0.010121
-0.00830007
0.0109069
-0.00773585
0.0116813
-0.00734077
0.0124475
-0.00699295
0.0131932
-0.00660421
0.0139181
-0.00627424
0.0146265
-0.00596514
0.015316
-0.00564709
0.0159725
-0.00537281
0.016604
-0.00509483
0.0172102
-0.00480866
0.0177891
-0.00451915
0.0183343
-0.00427606
0.0188467
-0.00403603
0.0193289
-0.00376321
0.01978
-0.00348841
0.0201993
-0.00321154
0.0205837
-0.00299476
0.0209355
-0.00274516
0.0212554
-0.00246949
0.0215434
-0.00219153
0.0217993
-0.00191119
0.022023
-0.00165061
0.0222146
-0.00141594
0.0223749
-0.00112854
0.0225039
-0.000839314
0.0226017
-0.00054844
0.0226682
-0.000256134
0.0227041
1.91347e-05
0.02271
0.000310948
0.0226854
0.000624089
0.0226305
0.000913846
0.0225453
0.00118102
0.0224302
0.00142642
0.00165085
0.0222854
0.00614932
-0.0126683
-0.00531114
0.00698698
-0.0119832
0.00782262
-0.0109253
0.00865741
-0.0102953
0.00948057
-0.00951459
0.0103022
-0.0091217
0.0111084
-0.00854203
0.011903
-0.00813534
0.0126888
-0.00777874
0.0134547
-0.00737015
0.0142004
-0.00701997
0.0149298
-0.00669453
0.0156406
-0.00635789
0.0163199
-0.00605205
0.0169746
-0.00574962
0.0176045
-0.00543855
0.0182077
-0.00512228
0.0187777
-0.00484604
0.019315
-0.00457342
0.0198222
-0.00427035
0.020298
-0.00396423
0.0207416
-0.00365515
0.0211496
-0.00340278
0.0215241
-0.00311959
0.0218657
-0.00281114
0.0221743
-0.00250008
0.0224495
-0.00218641
0.022691
-0.00189209
0.0228987
-0.00162371
0.0230736
-0.00130345
0.0232157
-0.000981355
0.0233249
-0.000657646
0.0234013
-0.000332578
0.0234454
-2.49059e-05
0.0234576
0.000298679
0.0234379
0.000643828
0.0233862
0.00096554
0.0233027
0.00126452
0.0231877
0.00154147
0.00179709
0.0230414
0.00623879
-0.0135317
-0.00537541
0.0071012
-0.0128456
0.00796115
-0.0117853
0.00881936
-0.0111535
0.00966609
-0.0103613
0.0105101
-0.00996571
0.0113389
-0.00937084
0.0121558
-0.00895221
0.0129631
-0.00858609
0.013751
-0.00815802
0.0145189
-0.00778791
0.0152703
-0.00744593
0.0160031
-0.00709066
0.0167054
-0.0067543
0.0173834
-0.00642763
0.0180366
-0.00609181
0.0186633
-0.00574897
0.0192573
-0.00543998
0.0198187
-0.00513488
0.0203497
-0.00480139
0.0208492
-0.0044637
0.0213161
-0.00412203
0.0217467
-0.00383342
0.022143
-0.00351582
0.0225055
-0.00317367
0.0228339
-0.00282847
0.0231278
-0.00248034
0.0233866
-0.00215091
0.0236101
-0.00184722
0.0237994
-0.00149268
0.0239543
-0.00113623
0.0240748
-0.000778165
0.024161
-0.000418778
0.0242131
-7.70161e-05
0.0242317
0.000280073
0.0242167
0.000658794
0.0241682
0.00101404
0.0240864
0.00134639
0.0239714
0.00165647
0.00194486
0.0238236
0.00634145
-0.0144225
-0.0054507
0.0072308
-0.0137349
0.00811729
-0.0126717
0.00900121
-0.0120374
0.00987373
-0.0112338
0.0107424
-0.0108344
0.011596
-0.0102244
0.0124372
-0.00979342
0.013268
-0.00941695
0.0140796
-0.00896954
0.0148712
-0.00857954
0.0156458
-0.00822059
0.0164016
-0.00784641
0.0171275
-0.00748021
0.0178291
-0.00712924
0.0185059
-0.00676857
0.019156
-0.00639909
0.0197736
-0.00605756
0.0203586
-0.00571993
0.020913
-0.00535573
0.0214354
-0.00498611
0.0219248
-0.00461142
0.0223773
-0.00428598
0.0227947
-0.00393317
0.0231775
-0.00355643
0.0235251
-0.0031761
0.0238371
-0.0027924
0.0241128
-0.00242661
0.0243517
-0.00208613
0.024555
-0.00169592
0.0247224
-0.00130368
0.024854
-0.000909754
0.0249498
-0.000514521
0.0250098
-0.000137023
0.0250346
0.000255271
0.0250242
0.000669131
0.0249788
0.00105948
0.0248984
0.00142681
0.0247832
0.00177161
0.00209436
0.0246337
0.0064564
-0.0153426
-0.00553623
0.00737476
-0.0146533
0.00828986
-0.0135868
0.00920164
-0.0129492
0.010102
-0.0121342
0.0109975
-0.0117298
0.0118778
-0.0111048
0.0127453
-0.0106609
0.0136016
-0.0102732
0.0144385
-0.00980643
0.0152554
-0.00939639
0.0160547
-0.00901989
0.0168346
-0.00862632
0.017585
-0.00823067
0.0183109
-0.00785515
0.0190117
-0.00746931
0.0196855
-0.00707291
0.0203268
-0.00669882
0.0209353
-0.00632848
0.0215127
-0.00593316
0.0220578
-0.00553113
0.0225692
-0.00512289
0.0230433
-0.00476001
0.0234813
-0.0043712
0.0238838
-0.00395896
0.0242502
-0.0035425
0.0245799
-0.00312214
0.0248721
-0.00271875
0.025126
-0.0023401
0.025343
-0.00191285
0.0255227
-0.00148338
0.0256651
-0.00105214
0.0257701
-0.000619548
0.0258378
-0.000204696
0.0258686
0.000224478
0.0258626
0.000675051
0.02582
0.0011021
0.0257408
0.001506
0.0256253
0.00188713
0.00224586
0.0254738
0.00658299
-0.0162941
-0.00563146
0.00753232
-0.0156026
0.00847801
-0.0145325
0.00941969
-0.0138909
0.0103499
-0.0130644
0.0112742
-0.0126541
0.0121832
-0.0120138
0.0130789
-0.0115566
0.0139625
-0.0111568
0.0148264
-0.0106704
0.0156701
-0.01024
0.0164955
-0.0098453
0.0173009
-0.0094317
0.018077
-0.00900676
0.0188281
-0.00860626
0.0195535
-0.00819473
0.0202515
-0.00777095
0.0209168
-0.00736413
0.0215491
-0.00696075
0.0221497
-0.00653373
0.0227173
-0.0060987
0.0232506
-0.00565625
0.0237459
-0.00525529
0.0242043
-0.00482964
0.0246263
-0.00438095
0.0250112
-0.00392733
0.0253582
-0.00346921
0.0256665
-0.00302702
0.0259352
-0.00260882
0.0261656
-0.00214318
0.0263573
-0.00167508
0.0265102
-0.00120505
0.0266242
-0.000733591
0.0266993
-0.000279781
0.0267359
0.000187935
0.0267341
0.00067681
0.026694
0.00114217
0.0266158
0.00158425
0.0264996
0.00200334
0.00239968
0.0263457
0.00672075
-0.0172789
-0.00573597
0.00770296
-0.0165848
0.00868116
-0.0155107
0.00965469
-0.0148644
0.0106166
-0.0140263
0.0115717
-0.0136092
0.0125113
-0.0129535
0.013437
-0.0124822
0.0143497
-0.0120695
0.0152424
-0.0115632
0.0161144
-0.011112
0.0169674
-0.0106983
0.0177997
-0.0102639
0.0186026
-0.00980968
0.01938
-0.0093836
0.020131
-0.00894574
0.020854
-0.00849396
0.0215439
-0.00805407
0.0222003
-0.00761716
0.0228243
-0.00715775
0.0234146
-0.00668899
0.0239699
-0.00621157
0.0244865
-0.00577182
0.0249653
-0.00530844
0.0254066
-0.00482228
0.0258097
-0.00433043
0.0261739
-0.00383341
0.0264981
-0.00335119
0.0267814
-0.00289211
0.0270249
-0.00238669
0.0272283
-0.00187853
0.0273915
-0.00136823
0.0275143
-0.000856386
0.0275965
-0.000362016
0.0276386
0.000145903
0.0276407
0.000674687
0.0276029
0.00117998
0.0275252
0.00166189
0.027408
0.00212059
0.0025562
0.0272515
0.00686937
-0.0182988
-0.00584946
0.00788634
-0.0176018
0.00889894
-0.0165233
0.00990623
-0.0158717
0.0109017
-0.0150218
0.0118895
-0.0145969
0.0128615
-0.0139255
0.013819
-0.0134397
0.0147626
-0.0130131
0.0156858
-0.0124864
0.0165878
-0.012014
0.01747
-0.0115805
0.0183305
-0.0111245
0.0191616
-0.0106407
0.0199663
-0.0101883
0.0207439
-0.00972337
0.0214928
-0.00924284
0.0222081
-0.00876936
0.0228892
-0.00829832
0.0235372
-0.00780569
0.0241506
-0.00730236
0.0247281
-0.00678911
0.0252661
-0.00630978
0.0257653
-0.00580768
0.026226
-0.00528297
0.0266473
-0.00475175
0.0270285
-0.00421465
0.0273685
-0.00369114
0.0276662
-0.00318982
0.0279227
-0.00264321
0.0281377
-0.00209353
0.028311
-0.00154147
0.0284423
-0.000987694
0.0285314
-0.00045115
0.0285787
9.86432e-05
0.0285844
0.000668975
0.0285485
0.00121585
0.0284711
0.00173927
0.0283525
0.00223926
0.00271584
0.0281928
0.00702865
-0.0193557
-0.00597176
0.00808225
-0.0186554
0.00913111
-0.0175722
0.010174
-0.0169147
0.011205
-0.0160527
0.0122273
-0.0156192
0.0132336
-0.0149318
0.0142246
-0.0144308
0.0152009
-0.0139894
0.0161564
-0.0134419
0.01709
-0.0129476
0.0180028
-0.0124933
0.0188932
-0.0120149
0.0197536
-0.0115011
0.020587
-0.0110217
0.0213924
-0.0105288
0.0221681
-0.0100186
0.0229096
-0.0095109
0.0236163
-0.00900497
0.0242888
-0.00847819
0.0249258
-0.00793935
0.025526
-0.00738929
0.0260857
-0.00686948
0.0266056
-0.0063276
0.0270858
-0.0057632
0.0275255
-0.0051914
0.0279238
-0.00461295
0.0282795
-0.00404685
0.0285915
-0.0035019
0.028861
-0.00291265
0.0290874
-0.00231996
0.0292705
-0.00172459
0.0294101
-0.00112731
0.0295059
-0.000546951
0.0295582
4.64092e-05
0.0295672
0.000659962
0.0295329
0.00125011
0.0294555
0.00181673
0.029335
0.00235974
0.00287901
0.0291718
0.00719848
-0.0204515
-0.00610275
0.00829058
-0.0197475
0.00937758
-0.0186592
0.0104581
-0.0179951
0.0115263
-0.0171209
0.012585
-0.016678
0.0136274
-0.0159742
0.0146538
-0.0154572
0.0156645
-0.0150002
0.0166539
-0.0144313
0.0176207
-0.0139144
0.0185659
-0.0134384
0.0194875
-0.0129366
0.0203788
-0.0123924
0.0212421
-0.011885
0.0220765
-0.0113631
0.0228802
-0.0108223
0.023649
-0.0102797
0.024382
-0.009738
0.0250798
-0.00917602
0.0257411
-0.0086006
0.0263644
-0.00801265
0.0269463
-0.00745138
0.0274873
-0.00686858
0.0279874
-0.00626323
0.0284455
-0.00564957
0.028861
-0.00502844
0.0292326
-0.00441838
0.029559
-0.00382838
0.0298414
-0.00319499
0.0300791
-0.00255773
0.030272
-0.00191747
0.0304198
-0.00127506
0.030522
-0.000649215
0.030579
-1.05634e-05
0.030591
0.000647927
0.0305581
0.00128308
0.0304801
0.00189466
0.0303574
0.00248243
0.00304617
0.0301903
0.00737884
-0.0215879
-0.00624236
0.00851133
-0.02088
0.00963835
-0.0197862
0.0107583
-0.0191151
0.0118656
-0.0182282
0.0129627
-0.017775
0.0140429
-0.0170544
0.0151065
-0.0165209
0.0161536
-0.0160472
0.0171785
-0.0154563
0.0181803
-0.0149162
0.0191593
-0.0144175
0.0201139
-0.0138911
0.0210374
-0.013316
0.021932
-0.0127796
0.0227966
-0.0122277
0.0236295
-0.0116552
0.0244266
-0.0110767
0.025187
-0.0104984
0.025911
-0.00990005
0.0265973
-0.00928689
0.0272445
-0.00865986
0.0278492
-0.00805604
0.0284117
-0.00743109
0.0289319
-0.00678346
0.0294089
-0.00612657
0.0298418
-0.00546136
0.0302293
-0.0048059
0.0305703
-0.00416937
0.0308656
-0.00349026
0.0311147
-0.00280683
0.0313173
-0.00212003
0.031473
-0.00143082
0.0315816
-0.000757769
0.0316431
-7.20598e-05
0.0316579
0.000633136
0.0316259
0.00131509
0.0315471
0.00197341
0.0314218
0.00260776
0.00321777
0.0312502
0.00756976
-0.0227671
-0.00639062
0.00874456
-0.0220548
0.00991352
-0.0209552
0.0110748
-0.0202763
0.0122232
-0.0193766
0.0133604
-0.0189123
0.0144804
-0.0181744
0.0155831
-0.0176235
0.0166682
-0.0171322
0.0177305
-0.0165186
0.0187688
-0.0159545
0.0197834
-0.015432
0.0207725
-0.0148802
0.0217298
-0.0142733
0.0226572
-0.0137069
0.0235533
-0.0131239
0.0244167
-0.0125186
0.0252432
-0.0119033
0.026032
-0.0112871
0.0267832
-0.0106512
0.0274953
-0.00999907
0.0281672
-0.00933169
0.0287953
-0.00868413
0.0293799
-0.0080157
0.0299208
-0.00732438
0.030417
-0.00662281
0.0308677
-0.00591201
0.0312714
-0.00520965
0.0316271
-0.00452503
0.0319354
-0.00379857
0.0321959
-0.0030673
0.0324081
-0.00233226
0.0325718
-0.0015945
0.0326865
-0.000872473
0.0327523
-0.000137889
0.0327696
0.000615838
0.0327383
0.00134642
0.0326583
0.00205334
0.03253
0.00273613
0.00339428
0.0323535
0.00777134
-0.0239908
-0.00654758
0.00899041
-0.0232738
0.0102033
-0.0221681
0.0114079
-0.0214809
0.0125992
-0.020568
0.0137786
-0.0200917
0.0149402
-0.0193361
0.0160837
-0.018767
0.0172087
-0.0182572
0.0183103
-0.0176202
0.0193869
-0.0170311
0.0204387
-0.0164839
0.0214639
-0.0159054
0.0224566
-0.015266
0.0234181
-0.0146684
0.0243473
-0.0140531
0.0252424
-0.0134137
0.0260996
-0.0127605
0.0269179
-0.0121054
0.0276973
-0.0114306
0.0284363
-0.0107381
0.0291336
-0.010029
0.0297858
-0.00933639
0.0303932
-0.00862306
0.0309554
-0.00788655
0.0314713
-0.00713875
0.0319401
-0.0063808
0.0323604
-0.00562994
0.032731
-0.00489561
0.0330525
-0.00412009
0.0333244
-0.00333922
0.0335463
-0.00255416
0.0337179
-0.00176606
0.0338386
-0.000993219
0.0339086
-0.000207886
0.0339282
0.00059626
0.0338973
0.00137737
0.0338158
0.0021348
0.033684
0.00286795
0.00357617
0.0335021
0.00798372
-0.0252612
-0.00671332
0.00924906
-0.0245392
0.0105078
-0.0234268
0.0117577
-0.0227308
0.012994
-0.0218042
0.0142175
-0.0213151
0.0154227
-0.0205413
0.016609
-0.0199533
0.0177757
-0.019424
0.0189183
-0.0187627
0.020035
-0.0181478
0.0211258
-0.0175747
0.0221888
-0.0169683
0.0232184
-0.0162956
0.0242156
-0.0156657
0.0251793
-0.0150167
0.0261075
-0.014342
0.0269967
-0.0136497
0.0278457
-0.0129543
0.0286544
-0.0122393
0.0294212
-0.011505
0.0301449
-0.0107527
0.0308222
-0.0100137
0.031453
-0.00925392
0.0320371
-0.00847061
0.0325733
-0.00767496
0.0330607
-0.00686819
0.0334979
-0.00606714
0.0338837
-0.0052814
0.0342187
-0.00445503
0.0345022
-0.00362275
0.0347338
-0.00278582
0.0349133
-0.00194549
0.03504
-0.00111993
0.035114
-0.00028191
0.0351357
0.000574613
0.0351048
0.00140822
0.0350215
0.00221814
0.0348858
0.00300362
0.0037639
0.0346981
0.00820709
-0.0265803
-0.00688798
0.00952077
-0.0258529
0.0108275
-0.0247335
0.0121248
-0.0240281
0.013408
-0.0230875
0.0146776
-0.0225847
0.0159283
-0.021792
0.0171593
-0.0211844
0.0183698
-0.0206344
0.0195552
-0.0199481
0.0207138
-0.0193065
0.0218453
-0.0187062
0.0229479
-0.0180709
0.024016
-0.0173638
0.0250506
-0.0167003
0.0260502
-0.0160163
0.027013
-0.0153049
0.0279355
-0.0145722
0.0288165
-0.0138353
0.0296556
-0.0130784
0.0304515
-0.0123008
0.0312025
-0.0115037
0.0319057
-0.0107168
0.0325608
-0.00990908
0.0331675
-0.00907728
0.0337246
-0.00823206
0.0342311
-0.00737471
0.0346857
-0.00652172
0.0350871
-0.00568278
0.0354357
-0.00480367
0.035731
-0.00391807
0.0359725
-0.00302734
0.0361599
-0.00213283
0.0362925
-0.00125257
0.0363705
-0.000359844
0.036394
0.000551085
0.036363
0.00143923
0.0362774
0.00230369
0.0361375
0.00314356
0.00395795
0.0359434
0.00844166
-0.0279503
-0.00707173
0.00980581
-0.027217
0.0111626
-0.0260903
0.0125093
-0.0253748
0.0138416
-0.0244197
0.0151593
-0.0239025
0.0164576
-0.0230902
0.0177353
-0.0224621
0.0189915
-0.0218906
0.0202217
-0.0211783
0.0214241
-0.0205089
0.0225982
-0.0198804
0.023742
-0.0192147
0.0248504
-0.0184722
0.0259239
-0.0177737
0.0269611
-0.0170534
0.02796
-0.0163038
0.0289172
-0.0155294
0.0298315
-0.0147495
0.0307024
-0.0139493
0.0315283
-0.0131268
0.0323078
-0.0122832
0.0330378
-0.0114469
0.0337181
-0.0105894
0.0343482
-0.00970733
0.0349269
-0.00881072
0.0354531
-0.00790095
0.0359255
-0.00699415
0.0363429
-0.00610014
0.0367055
-0.00516633
0.0370129
-0.00422542
0.0372644
-0.00327887
0.0374597
-0.00232813
0.0375983
-0.00139111
0.03768
-0.0004416
0.0377053
0.000525847
0.0376739
0.00147065
0.0375858
0.00239176
0.0374412
0.00328816
0.00415878
0.0372403
0.00868772
-0.0293732
-0.00726476
0.0101045
-0.0286338
0.0115135
-0.0274993
0.0129119
-0.0267732
0.0142953
-0.0258031
0.0156634
-0.0252706
0.0170113
-0.0244382
0.0183378
-0.0237886
0.0196416
-0.0231944
0.0209186
-0.0224552
0.0221667
-0.021757
0.0233853
-0.0210989
0.0245723
-0.0204017
0.0257227
-0.0196226
0.0268368
-0.0188879
0.0279131
-0.0181297
0.0289497
-0.0173404
0.0299431
-0.0165228
0.030892
-0.0156984
0.0317959
-0.0148532
0.0326532
-0.013984
0.0334622
-0.0130923
0.0342202
-0.0122048
0.0349266
-0.0112958
0.0355808
-0.0103616
0.0361818
-0.00941169
0.0367284
-0.00844756
0.0372193
-0.007485
0.0376531
-0.00653394
0.0380301
-0.00554338
0.0383498
-0.00454508
0.0386115
-0.0035406
0.0388149
-0.00253151
0.0389594
-0.00153559
0.0390449
-0.00052711
0.0390717
0.000499049
0.0390396
0.00150271
0.0389487
0.00248269
0.038799
0.00343781
0.00436688
0.0385909
0.00894555
-0.0308515
-0.0074673
0.0104173
-0.0301055
0.0118808
-0.0289628
0.013333
-0.0282255
0.0147698
-0.0272399
0.0161904
-0.0266912
0.0175901
-0.0258379
0.0189675
-0.0251659
0.0203211
-0.024548
0.0216468
-0.0237809
0.0229427
-0.0230529
0.0242077
-0.0223639
0.0254397
-0.0216337
0.0266339
-0.0208169
0.0277904
-0.0200444
0.0289076
-0.0192469
0.0299834
-0.0184162
0.0310146
-0.017554
0.0319996
-0.0166835
0.0329379
-0.0157914
0.0338277
-0.0148738
0.0346675
-0.0139321
0.0354544
-0.0129917
0.0361879
-0.0120293
0.0368672
-0.011041
0.0374913
-0.0100358
0.038059
-0.00901523
0.0385689
-0.00799486
0.0390196
-0.0069847
0.0394115
-0.00593523
0.0397438
-0.00487736
0.0400159
-0.00381276
0.0402275
-0.00274309
0.0403779
-0.00168602
0.0404672
-0.000616328
0.0404954
0.000470827
0.0404625
0.00153563
0.0403684
0.00257676
0.0402133
0.00359291
0.00458271
0.0399974
0.00921549
-0.0323874
-0.00767959
0.0107444
-0.0316345
0.0122648
-0.0304832
0.0137732
-0.0297339
0.0152656
-0.0287323
0.016741
-0.0281665
0.0181947
-0.0272916
0.0196252
-0.0265964
0.0210308
-0.0259536
0.0224074
-0.0251576
0.023753
-0.0243984
0.0250664
-0.0236773
0.0263454
-0.0229127
0.0275853
-0.0220568
0.028786
-0.0212451
0.0299458
-0.0204066
0.0310625
-0.019533
0.032133
-0.0186245
0.0331557
-0.0177061
0.0341297
-0.0167655
0.0350535
-0.0157975
0.0359253
-0.0148039
0.0367423
-0.0138087
0.0375039
-0.0127909
0.0382093
-0.0117464
0.0388573
-0.0106838
0.0394468
-0.00960473
0.0399764
-0.0085244
0.0404446
-0.00745296
0.0408517
-0.00634234
0.041197
-0.00522263
0.0414798
-0.0040956
0.0416998
-0.00296303
0.0418563
-0.0018425
0.0419492
-0.000709227
0.0419787
0.000441298
0.0419447
0.00156963
0.0418472
0.0026743
0.0416862
0.00375385
0.00480676
0.0414622
0.00949789
-0.0339833
-0.00790193
0.0110865
-0.0332231
0.0126661
-0.0320627
0.0142331
-0.0313009
0.0157835
-0.0302827
0.017316
-0.029699
0.018826
-0.0288017
0.0203118
-0.0280822
0.0217716
-0.0274134
0.0232013
-0.0265873
0.0245988
-0.0257959
0.0259626
-0.0250412
0.0272906
-0.0242407
0.0285783
-0.0233445
0.0298251
-0.0224919
0.0310292
-0.0216107
0.0321886
-0.0206924
0.0333001
-0.0197359
0.0343619
-0.018768
0.0353732
-0.0177768
0.0363323
-0.0167566
0.0372374
-0.015709
0.0380857
-0.014657
0.0388765
-0.0135817
0.039609
-0.0124789
0.0402819
-0.0113567
0.040894
-0.0102168
0.0414439
-0.0090743
0.0419303
-0.00793931
0.0423531
-0.0067652
0.0427118
-0.00558127
0.0430056
-0.00438941
0.0432341
-0.00319153
0.0433967
-0.0020051
0.0434932
-0.0008058
0.043524
0.000410569
0.0434887
0.0016049
0.0433874
0.00277559
0.0432202
0.00392103
0.00503952
0.0429875
0.00979314
-0.0356419
-0.00813459
0.0114439
-0.0348739
0.0130852
-0.033704
0.0147133
-0.032929
0.0163242
-0.0318936
0.0179161
-0.0312909
0.0194849
-0.0303705
0.0210284
-0.0296257
0.0225446
-0.0289296
0.0240297
-0.0280724
0.0254812
-0.0272474
0.0268978
-0.0264577
0.0282769
-0.0256198
0.0296142
-0.0246818
0.030909
-0.0237867
0.0321594
-0.0228612
0.0333633
-0.0218963
0.0345175
-0.02089
0.0356201
-0.0198706
0.0366702
-0.0188269
0.037666
-0.0177524
0.0386057
-0.0166487
0.0394866
-0.0155378
0.0403078
-0.0144029
0.0410684
-0.0132395
0.0417671
-0.0120554
0.0424027
-0.0108524
0.0429737
-0.00964531
0.0434788
-0.00844441
0.0439179
-0.00720434
0.0442904
-0.00595371
0.0445955
-0.00469453
0.0448328
-0.0034288
0.0450016
-0.00217393
0.0451019
-0.000906058
0.0451337
0.00037873
0.045097
0.00164164
0.0449916
0.00288093
0.0448178
0.00409482
0.00528147
0.0445759
0.0101017
-0.0373656
-0.00837793
0.0118172
-0.0365895
0.0135228
-0.0354095
0.0152145
-0.0346207
0.0168884
-0.0335675
0.0185424
-0.0329449