/*--------------------------------*- C++ -*----------------------------------*\
| =========                 |                                                 |
| \\      /  F ield         | OpenFOAM: The Open Source CFD Toolbox           |
|  \\    /   O peration     | Version:  3.0.1                                 |
|   \\  /    A nd           | Web:      www.OpenFOAM.org                      |
|    \\/     M anipulation  |                                                 |
\*---------------------------------------------------------------------------*/
FoamFile
{
    version     2.0;
    format      ascii;
    class       volVectorField;
    location    "500";
    object      U;
}
// * * * * * * * * * * * * * * * * * * * * * * * * * * * * * * * * * * * * * //

dimensions      [0 1 -1 0 0 0 0];

internalField   nonuniform List<vector> 
58000
(
(0.448183 0.993951 -1.81312e-21)
(0.595752 1.10487 -1.07882e-21)
(0.736172 1.12948 2.94043e-20)
(0.852728 1.09194 -5.20368e-20)
(0.941856 1.01947 1.912e-20)
(1.00498 0.928205 1.5613e-20)
(1.05292 0.833206 0)
(1.08665 0.743105 -2.05214e-20)
(1.10991 0.656188 5.00542e-20)
(1.12753 0.577427 1.41327e-20)
(1.14065 0.509972 -3.2835e-20)
(1.14971 0.450884 0)
(1.15543 0.398017 0)
(1.16168 0.354299 1.36275e-20)
(1.16443 0.318296 0)
(1.16485 0.287572 -1.23748e-19)
(1.16345 0.260995 1.22454e-19)
(1.16141 0.238359 -1.31156e-20)
(1.15873 0.219371 1.00627e-19)
(1.15509 0.20281 -9.98416e-20)
(1.15097 0.187874 -9.52919e-20)
(1.14615 0.17398 9.45338e-20)
(1.14151 0.161346 0)
(1.13651 0.150009 8.77347e-20)
(1.13107 0.139514 -8.72606e-20)
(1.12537 0.129581 8.38652e-20)
(1.11933 0.12005 3.69211e-21)
(1.11304 0.110907 -8.17303e-20)
(1.10693 0.102463 0)
(1.10037 0.0946479 4.77454e-21)
(1.09348 0.0872227 -4.25959e-20)
(1.0863 0.0802061 7.99095e-20)
(1.07833 0.0736266 -6.83047e-22)
(1.06992 0.0676135 -3.4509e-20)
(1.05999 0.0619843 -1.66654e-20)
(1.04762 0.0566128 1.79219e-20)
(1.03397 0.0516057 1.09809e-21)
(1.02099 0.0471356 1.0764e-21)
(1.00913 0.0429988 -3.22891e-21)
(1.00332 0.039815 5.57226e-21)
(0.622804 0.573585 -2.95848e-21)
(0.728539 0.632938 3.7275e-21)
(0.829846 0.674807 0)
(0.926341 0.707022 -1.5883e-21)
(1.01657 0.727938 -7.69707e-21)
(1.09942 0.732621 -1.43996e-21)
(1.17111 0.721307 7.7114e-21)
(1.22919 0.699341 1.48798e-20)
(1.27714 0.667572 -1.59697e-20)
(1.31354 0.629106 0)
(1.33872 0.588925 4.40185e-20)
(1.35561 0.547449 -1.27805e-19)
(1.36532 0.504439 -1.54709e-21)
(1.36813 0.464293 6.09278e-21)
(1.3671 0.428246 1.39029e-19)
(1.36325 0.394114 -8.67866e-20)
(1.35712 0.361691 6.05121e-20)
(1.34967 0.332282 -1.38621e-19)
(1.34172 0.306479 -7.26639e-21)
(1.33331 0.283026 6.80206e-20)
(1.32449 0.261134 8.05898e-21)
(1.31537 0.240607 0)
(1.30649 0.222069 0)
(1.29799 0.205548 0)
(1.28953 0.190206 0)
(1.28103 0.175676 6.85256e-20)
(1.2725 0.161879 -6.12009e-20)
(1.26404 0.148916 0)
(1.25596 0.137135 3.27522e-20)
(1.24806 0.126287 -6.23847e-22)
(1.24017 0.11598 -2.52465e-20)
(1.23227 0.106212 -3.60778e-21)
(1.22464 0.0969956 2.4324e-20)
(1.21744 0.0883993 -2.95698e-20)
(1.21092 0.0803913 0)
(1.20461 0.0729665 -1.64449e-21)
(1.19829 0.0661491 1.6243e-21)
(1.19218 0.0599789 -8.26764e-22)
(1.18644 0.0540922 -3.21589e-21)
(1.18118 0.0487079 3.33561e-21)
(0.648823 0.51953 5.0082e-22)
(0.697541 0.569369 0)
(0.753599 0.60846 0)
(0.816172 0.637772 -7.17557e-22)
(0.880412 0.655911 -6.50271e-21)
(0.945114 0.664391 1.03073e-20)
(1.0075 0.663909 -9.3368e-21)
(1.06449 0.654584 -1.31886e-20)
(1.11851 0.637542 1.35492e-20)
(1.16597 0.614464 0)
(1.20485 0.587156 0)
(1.23756 0.556291 -9.09709e-21)
(1.26498 0.522544 4.41114e-20)
(1.28529 0.489054 -6.96787e-22)
(1.29975 0.456665 -4.61171e-20)
(1.31018 0.424726 1.27019e-20)
(1.31708 0.393652 5.98386e-20)
(1.3207 0.364784 -1.1642e-20)
(1.32175 0.338741 -4.2306e-20)
(1.32098 0.314614 -3.66212e-20)
(1.31881 0.291892 4.23247e-20)
(1.31549 0.270508 1.1569e-20)
(1.31137 0.251075 0)
(1.30677 0.233565 0)
(1.30172 0.217216 -5.65084e-21)
(1.29626 0.20174 -5.18437e-20)
(1.29047 0.187074 4.61881e-20)
(1.28445 0.17331 -5.51789e-21)
(1.27844 0.160724 -2.86167e-21)
(1.27238 0.149015 -2.82981e-21)
(1.26616 0.1378 0)
(1.25979 0.127027 0)
(1.2533 0.116634 -1.87199e-20)
(1.24677 0.10672 2.1577e-20)
(1.24031 0.0974307 2.58898e-21)
(1.23386 0.0887418 5.12257e-23)
(1.2274 0.0806282 -1.31983e-21)
(1.22114 0.0731097 0)
(1.21519 0.0660165 2.54179e-21)
(1.20959 0.0591589 -2.67909e-21)
(0.718233 0.446384 1.18474e-21)
(0.751587 0.4824 -1.16728e-21)
(0.787779 0.514289 0)
(0.827805 0.542377 -4.26117e-22)
(0.871137 0.563472 2.49182e-21)
(0.916931 0.577864 -1.91192e-21)
(0.963907 0.585121 -2.202e-22)
(1.00911 0.585336 -6.45455e-21)
(1.05382 0.579337 2.61656e-22)
(1.09579 0.567649 0)
(1.1328 0.551446 -4.79759e-21)
(1.16597 0.531381 3.81404e-20)
(1.19581 0.50784 -2.60907e-20)
(1.2202 0.482911 -8.10989e-21)
(1.23951 0.457482 0)
(1.25528 0.431299 2.52523e-20)
(1.26783 0.404741 -4.22023e-20)
(1.27695 0.379057 -2.53622e-20)
(1.28303 0.355023 4.29368e-20)
(1.2869 0.332131 -9.24076e-21)
(1.28907 0.3101 8.50077e-21)
(1.28974 0.28899 -9.2869e-21)
(1.28912 0.269483 -3.54845e-20)
(1.28753 0.251644 3.56243e-20)
(1.2852 0.234836 -3.98442e-21)
(1.28223 0.218824 4.28487e-21)
(1.27873 0.203566 0)
(1.2748 0.189182 4.503e-21)
(1.27062 0.175956 0)
(1.26623 0.163611 4.20719e-21)
(1.26158 0.151789 -1.71048e-20)
(1.25671 0.140462 1.73048e-20)
(1.25163 0.129599 1.69411e-20)
(1.24642 0.119299 -2.31912e-21)
(1.24116 0.109665 -1.90239e-20)
(1.2358 0.100549 9.30497e-21)
(1.2303 0.0918261 -8.32759e-21)
(1.22476 0.0835234 0)
(1.21927 0.075602 1.0026e-21)
(1.21392 0.0680184 0)
(0.755857 0.405192 2.58966e-21)
(0.779243 0.433201 -8.14974e-22)
(0.804913 0.459171 -1.27866e-21)
(0.833612 0.483582 5.37339e-22)
(0.865374 0.503915 0)
(0.899953 0.520043 -3.07508e-22)
(0.936708 0.531091 0)
(0.973491 0.536365 -2.38525e-21)
(1.01117 0.536649 5.07507e-21)
(1.04793 0.53191 4.68052e-21)
(1.08173 0.522572 3.81585e-21)
(1.11331 0.509301 -4.39542e-21)
(1.14296 0.492502 1.83277e-20)
(1.1685 0.4735 -2.31651e-20)
(1.18988 0.453068 0)
(1.2084 0.43127 6.09547e-21)
(1.22419 0.408485 0)
(1.23676 0.385778 -5.77332e-21)
(1.24624 0.363914 -7.58474e-22)
(1.25343 0.342626 -2.60124e-20)
(1.25877 0.321774 -1.3423e-20)
(1.26246 0.301489 -5.05613e-23)
(1.26456 0.282457 2.05807e-20)
(1.26537 0.264818 -2.70811e-20)
(1.26521 0.248051 3.44426e-20)
(1.26424 0.231974 3.04103e-20)
(1.26257 0.216574 -2.76357e-20)
(1.26029 0.201986 -2.06695e-20)
(1.25756 0.188493 2.75503e-20)
(1.25447 0.175843 -3.06952e-20)
(1.25102 0.163699 2.7539e-20)
(1.24726 0.152037 3.33605e-21)
(1.24322 0.140831 0)
(1.23897 0.130178 -1.17416e-20)
(1.2346 0.120185 1.85192e-22)
(1.2301 0.110692 1.34936e-20)
(1.22543 0.101558 -6.63032e-21)
(1.22063 0.0928079 6.70821e-21)
(1.21575 0.0844372 -4.14318e-21)
(1.21085 0.076442 3.52912e-21)
(0.7891 0.372095 -2.44924e-21)
(0.807124 0.394217 2.16675e-21)
(0.826377 0.415214 6.88766e-23)
(0.847613 0.435701 -1.17655e-21)
(0.871336 0.453787 3.58574e-22)
(0.897567 0.469424 -1.05945e-22)
(0.926218 0.48169 5.81553e-22)
(0.955753 0.489658 -2.85846e-21)
(0.986838 0.493919 3.83084e-21)
(1.01817 0.494026 -1.10422e-20)
(1.04798 0.489942 7.37677e-21)
(1.07671 0.482223 1.05623e-20)
(1.10453 0.471177 -1.5999e-20)
(1.12943 0.457499 3.6672e-21)
(1.15111 0.441841 6.62029e-21)
(1.1706 0.424426 1.61857e-20)
(1.1879 0.405578 -1.64618e-20)
(1.20239 0.386157 4.80948e-21)
(1.214 0.36688 1.82446e-20)
(1.22341 0.347662 -1.90957e-20)
(1.23103 0.328471 5.28133e-21)
(1.23697 0.309477 2.05121e-20)
(1.24119 0.291348 -1.52738e-20)
(1.24393 0.274287 -5.03712e-21)
(1.24556 0.257891 -2.12684e-20)
(1.24626 0.242035 3.74783e-20)
(1.24613 0.226734 -2.1774e-20)
(1.24526 0.212144 -3.72138e-22)
(1.24377 0.198552 2.17689e-20)
(1.2418 0.185742 -4.37715e-20)
(1.23938 0.17341 2.47786e-20)
(1.23657 0.161541 -2.48287e-20)
(1.23341 0.150118 8.56472e-21)
(1.22997 0.139237 2.20428e-20)
(1.22633 0.129005 -1.10454e-20)
(1.2225 0.119261 -1.08618e-20)
(1.21847 0.109858 1.09948e-20)
(1.21426 0.100818 5.41701e-21)
(1.20989 0.092152 -4.81996e-21)
(1.20542 0.0838774 0)
(0.814357 0.346804 6.61314e-22)
(0.828953 0.364774 -1.3993e-21)
(0.844318 0.382006 1.51019e-21)
(0.861014 0.399107 0)
(0.879568 0.414692 0)
(0.900129 0.428818 0)
(0.92286 0.440739 1.28074e-21)
(0.946733 0.449533 4.52302e-22)
(0.972324 0.455703 -9.8363e-22)
(0.998744 0.458638 1.72011e-21)
(1.02458 0.458 0)
(1.05011 0.454223 2.91104e-21)
(1.07546 0.447529 4.40453e-21)
(1.09886 0.438132 0)
(1.11987 0.426521 -1.02806e-20)
(1.13932 0.412994 -1.16646e-20)
(1.15711 0.397806 1.18719e-20)
(1.17257 0.381606 -1.34612e-20)
(1.18546 0.365015 9.89942e-21)
(1.19635 0.348074 6.87386e-21)
(1.20559 0.330821 -8.18845e-21)
(1.21322 0.313443 -2.81374e-22)
(1.21911 0.296558 1.22023e-20)
(1.22343 0.28041 3.82617e-22)
(1.22658 0.264707 0)
(1.22872 0.249375 0)
(1.22995 0.234454 -1.73333e-20)
(1.23034 0.220113 3.46552e-20)
(1.22998 0.206644 -1.34015e-20)
(1.22902 0.19387 0)
(1.22755 0.181523 -2.01239e-20)
(1.22561 0.169598 1.51355e-22)
(1.22325 0.158086 2.05394e-20)
(1.22053 0.147086 -9.00309e-21)
(1.21755 0.136705 1.12857e-20)
(1.21433 0.126792 8.96739e-21)
(1.21086 0.117205 -9.08269e-21)
(1.20715 0.107967 0)
(1.20324 0.0990957 -2.82261e-21)
(1.19917 0.0906195 2.11696e-21)
(0.835148 0.32622 -1.04e-21)
(0.847398 0.341119 1.36187e-21)
(0.860127 0.355474 0)
(0.87377 0.369838 0)
(0.888809 0.383166 4.93656e-22)
(0.90541 0.395579 -4.95144e-22)
(0.923828 0.406511 -2.37685e-22)
(0.943366 0.415162 -5.3495e-22)
(0.964532 0.421981 8.78817e-22)
(0.986749 0.426347 -3.9262e-22)
(1.00893 0.427792 0)
(1.03126 0.426648 -2.52396e-21)
(1.05388 0.423068 8.29104e-21)
(1.07531 0.416945 -8.92723e-21)
(1.09504 0.408615 6.78183e-22)
(1.11372 0.398387 0)
(1.13124 0.386439 0)
(1.14689 0.373221 4.60723e-21)
(1.16036 0.359242 1.65896e-20)
(1.1721 0.344619 -4.52867e-20)
(1.18238 0.329426 1.68706e-20)
(1.19119 0.313847 5.82022e-21)
(1.19833 0.29843 3.35353e-21)
(1.20392 0.283437 1.03282e-20)
(1.20831 0.268675 -1.33061e-20)
(1.21167 0.254108 7.17365e-21)
(1.21408 0.239799 -3.30541e-21)
(1.21558 0.225923 -2.12634e-20)
(1.21625 0.212773 -7.19035e-21)
(1.21623 0.200212 0)
(1.21563 0.188011 0)
(1.21451 0.176175 -1.47991e-20)
(1.21291 0.164706 1.1392e-20)
(1.2109 0.153705 1.8223e-21)
(1.20854 0.143281 5.54282e-21)
(1.20589 0.133296 -7.54805e-21)
(1.20295 0.123618 9.17302e-22)
(1.19973 0.114272 0)
(1.19626 0.10528 4.61073e-22)
(1.19258 0.0966741 2.56724e-22)
(0.852305 0.309136 -8.92883e-23)
(0.862855 0.321703 -2.44422e-23)
(0.873722 0.333834 1.46803e-21)
(0.885241 0.346016 7.48599e-22)
(0.897819 0.357436 5.58519e-22)
(0.911616 0.368241 4.23969e-22)
(0.926892 0.378008 -5.88203e-22)
(0.943165 0.386072 2.68832e-22)
(0.960877 0.392843 -6.01912e-22)
(0.979658 0.397761 -9.7719e-22)
(0.998683 0.400331 3.75711e-21)
(1.01811 0.400813 -7.24642e-22)
(1.03807 0.399322 -5.66297e-21)
(1.05737 0.39556 1.03878e-20)
(1.07551 0.38974 -7.13378e-21)
(1.09302 0.38215 9.97753e-21)
(1.10975 0.372903 -2.01415e-21)
(1.12506 0.362281 -3.39945e-20)
(1.13857 0.35068 2.38658e-20)
(1.15064 0.338249 -4.62946e-21)
(1.16146 0.325077 0)
(1.171 0.311331 9.91542e-21)
(1.17901 0.297476 -1.51052e-20)
(1.18552 0.283777 -1.55618e-20)
(1.19088 0.270115 2.13567e-20)
(1.19523 0.256486 -1.65033e-20)
(1.19862 0.242966 2.5612e-20)
(1.20108 0.229732 3.02013e-21)
(1.20265 0.217069 3.06611e-21)
(1.20348 0.20488 -2.88588e-21)
(1.2037 0.192972 0)
(1.20334 0.181362 -2.98481e-21)
(1.20246 0.170062 3.2227e-21)
(1.2011 0.159174 7.83984e-21)
(1.19935 0.148809 -1.11037e-20)
(1.19725 0.138847 7.81616e-21)
(1.19482 0.129166 -7.18305e-21)
(1.19207 0.119794 0)
(1.18904 0.110756 -1.60868e-21)
(1.18575 0.102085 1.69606e-21)
(0.866752 0.294636 0)
(0.876012 0.305384 -1.92091e-21)
(0.885489 0.315764 -1.62717e-21)
(0.89545 0.3262 -7.42597e-22)
(0.906234 0.33604 -6.0488e-22)
(0.917979 0.345437 0)
(0.930925 0.354071 1.03202e-22)
(0.944726 0.361395 -2.73145e-22)
(0.959758 0.367786 -1.43391e-22)
(0.975785 0.37276 -3.75218e-22)
(0.992179 0.37585 -7.04167e-22)
(1.00908 0.377268 5.27713e-21)
(1.02663 0.377105 2.59804e-21)
(1.04386 0.374976 1.90977e-21)
(1.06034 0.371003 -1.87082e-21)
(1.07647 0.36544 3.68958e-22)
(1.09214 0.358351 5.27316e-21)
(1.10675 0.34989 0)
(1.11992 0.340349 -1.34267e-20)
(1.13192 0.329885 9.99434e-21)
(1.14289 0.318584 0)
(1.15278 0.306588 2.34388e-20)
(1.16129 0.294283 -2.02119e-20)
(1.16842 0.281917 4.02041e-21)
(1.17448 0.269428 1.76641e-20)
(1.17958 0.256833 -1.36149e-20)
(1.18376 0.244214 0)
(1.18701 0.231743 0)
(1.18935 0.219691 -4.70518e-21)
(1.19092 0.207997 2.58165e-21)
(1.19185 0.196504 1.01357e-20)
(1.19218 0.185236 -7.64254e-21)
(1.19196 0.174214 0)
(1.19122 0.163541 1.6743e-22)
(1.19004 0.153331 -9.25157e-21)
(1.18847 0.143479 5.27471e-21)
(1.18653 0.133878 0)
(1.18425 0.124556 -2.69004e-21)
(1.18164 0.115543 1.71779e-21)
(1.17875 0.10687 -1.74141e-22)
(0.879064 0.28213 5.79064e-22)
(0.887309 0.291429 5.07243e-22)
(0.895712 0.300406 7.12888e-22)
(0.904486 0.30943 9.36421e-23)
(0.913912 0.317966 5.13894e-23)
(0.924111 0.326161 0)
(0.93529 0.333769 -1.71543e-22)
(0.947193 0.34034 -4.40758e-22)
(0.960136 0.346215 1.15656e-22)
(0.973966 0.350986 -3.1005e-22)
(0.988203 0.354235 -6.89454e-22)
(1.00297 0.35614 -4.07629e-21)
(1.01841 0.35678 -3.23824e-21)
(1.03375 0.355743 2.37703e-21)
(1.04862 0.353088 1.68851e-21)
(1.06335 0.349039 -5.6426e-21)
(1.07783 0.343622 1.69801e-21)
(1.09155 0.336902 -4.27895e-21)
(1.10413 0.329083 2.0312e-21)
(1.11577 0.320316 -1.3363e-20)
(1.1266 0.310676 1.1337e-20)
(1.13653 0.300281 -1.30267e-20)
(1.14527 0.289434 1.2876e-20)
(1.15275 0.278366 -1.75624e-20)
(1.15927 0.267052 1.75699e-20)
(1.1649 0.25552 -1.89801e-20)
(1.16965 0.243853 -2.66024e-22)
(1.17351 0.232214 1.95783e-20)
(1.17648 0.220855 -3.93581e-21)
(1.17867 0.209743 8.28655e-21)
(1.18022 0.198753 -4.1102e-21)
(1.18116 0.187916 0)
(1.18152 0.177261 0)
(1.18134 0.166889 2.31593e-21)
(1.18069 0.156914 -4.36674e-21)
(1.17961 0.14725 -1.15188e-21)
(1.17815 0.137801 2.71848e-23)
(1.1763 0.128599 4.63384e-21)
(1.17411 0.119674 5.9804e-22)
(1.1716 0.111058 1.56807e-22)
(0.889674 0.271199 -1.80373e-22)
(0.897099 0.279321 7.03263e-22)
(0.904644 0.287156 -5.47167e-22)
(0.912482 0.295024 -4.86198e-22)
(0.920849 0.302479 -5.01732e-22)
(0.929846 0.309657 2.58414e-22)
(0.939653 0.316364 -1.31283e-22)
(0.95007 0.322228 -1.32194e-22)
(0.961366 0.327554 -1.0931e-22)
(0.973436 0.332003 1.50626e-21)
(0.985909 0.335206 -1.53319e-21)
(0.998895 0.337318 -2.58867e-21)
(1.01253 0.338412 -1.53213e-21)
(1.0262 0.338082 3.15006e-22)
(1.03958 0.33635 0)
(1.05296 0.333409 0)
(1.06624 0.329262 1.33007e-20)
(1.07898 0.323913 3.99854e-22)
(1.09084 0.317501 -4.94167e-22)
(1.10197 0.310158 4.64565e-21)
(1.11245 0.301951 9.7144e-21)
(1.1222 0.292968 -1.25178e-20)
(1.13093 0.283449 -5.84146e-21)
(1.13855 0.273594 -3.97115e-22)
(1.14531 0.263405 -3.4698e-21)
(1.15127 0.252915 1.22169e-20)
(1.15642 0.242203 0)
(1.16074 0.231418 -2.75037e-22)
(1.16418 0.220793 0)
(1.16687 0.210316 -3.38115e-21)
(1.16893 0.199887 3.73806e-21)
(1.17038 0.189545 -7.38196e-21)
(1.17125 0.17932 1.11443e-20)
(1.17157 0.169315 -9.49007e-21)
(1.17139 0.159641 1.15947e-20)
(1.17077 0.150227 -3.88724e-21)
(1.16974 0.140992 9.72128e-22)
(1.16831 0.131967 3.97913e-21)
(1.1665 0.123186 -9.96048e-22)
(1.16436 0.11468 9.22186e-22)
(0.898902 0.261539 -3.00449e-22)
(0.905648 0.268691 -3.03862e-22)
(0.91249 0.275583 -4.19394e-22)
(0.91957 0.282492 8.96967e-22)
(0.927088 0.289045 1.97845e-21)
(0.935127 0.295362 -8.92308e-22)
(0.943842 0.301288 0)
(0.953074 0.306512 4.08736e-23)
(0.963051 0.311307 3.98652e-22)
(0.973699 0.315388 0)
(0.984724 0.318437 6.70733e-22)
(0.996226 0.320589 2.02866e-21)
(1.00833 0.321911 3.09041e-21)
(1.02055 0.322024 -1.20296e-21)
(1.03259 0.320926 -2.33909e-21)
(1.04472 0.318785 6.37568e-21)
(1.05686 0.315591 2.70355e-21)
(1.06862 0.311308 -1.14851e-20)
(1.07969 0.306024 -3.82391e-22)
(1.0902 0.299857 -3.37762e-21)
(1.10021 0.292859 7.97638e-21)
(1.10963 0.285097 -4.11603e-21)
(1.11819 0.276753 -4.69015e-21)
(1.12579 0.268001 9.56107e-21)
(1.13263 0.258856 -1.44276e-20)
(1.13875 0.249353 0)
(1.14414 0.239563 1.0926e-20)
(1.14876 0.229622 -1.39949e-20)
(1.15256 0.219739 0)
(1.15563 0.209919 3.09518e-21)
(1.15809 0.200083 -6.14571e-21)
(1.15996 0.190272 6.25554e-21)
(1.16126 0.180522 -3.33124e-21)
(1.16201 0.170929 1.69632e-21)
(1.16224 0.161605 -1.07676e-22)
(1.16202 0.152491 -4.9766e-21)
(1.16138 0.143518 2.52032e-21)
(1.16033 0.13472 1.70976e-21)
(1.15889 0.126129 -2.59616e-21)
(1.1571 0.117778 1.12847e-21)
(0.906992 0.252926 -2.7586e-22)
(0.913166 0.259266 -7.06547e-22)
(0.919419 0.265368 1.31722e-21)
(0.925872 0.271475 -7.17747e-22)
(0.932691 0.277267 -5.65431e-22)
(0.93995 0.282852 7.04385e-22)
(0.947778 0.288104 -4.39431e-22)
(0.956046 0.29276 4.82987e-23)
(0.964949 0.297063 -1.61769e-22)
(0.974433 0.300772 -9.19904e-22)
(0.984261 0.303613 3.11006e-22)
(0.994522 0.305707 -8.68907e-22)
(1.00533 0.307115 2.48514e-21)
(1.01629 0.307493 4.81766e-22)
(1.02716 0.306825 -3.10642e-21)
(1.03816 0.305256 1.96473e-21)
(1.04923 0.302769 2.50846e-21)
(1.06005 0.299307 -2.0035e-21)
(1.07033 0.294921 -2.83988e-21)
(1.08019 0.289714 3.11179e-21)
(1.08965 0.283723 -3.05438e-21)
(1.09866 0.277 -3.64804e-21)
(1.10693 0.26968 -7.59007e-21)
(1.11438 0.261909 1.14424e-20)
(1.12117 0.253711 4.3526e-21)
(1.12732 0.24512 -4.18808e-21)
(1.13282 0.236198 9.24876e-21)
(1.13763 0.227065 -9.37365e-21)
(1.14166 0.217909 0)
(1.14501 0.208745 -1.02163e-20)
(1.14778 0.199511 1.03935e-20)
(1.14998 0.190249 -5.40779e-21)
(1.15162 0.180996 8.17052e-21)
(1.15272 0.171846 8.39146e-21)
(1.15331 0.162904 -7.20706e-21)
(1.15344 0.154126 1.49936e-21)
(1.15314 0.145453 0)
(1.15243 0.136918 -2.9689e-21)
(1.15133 0.128556 2.64598e-21)
(1.14985 0.120398 -5.29746e-23)
(0.914133 0.245185 5.05897e-22)
(0.919817 0.250838 3.84133e-22)
(0.925569 0.256273 2.97802e-22)
(0.931492 0.261701 0)
(0.937726 0.266847 0)
(0.944334 0.271806 0)
(0.951428 0.276475 -1.21193e-22)
(0.958899 0.28063 1.67143e-22)
(0.966915 0.284486 0)
(0.975433 0.287839 2.68225e-22)
(0.984262 0.290454 0)
(0.993479 0.292436 -1.51167e-21)
(1.00319 0.293844 2.44925e-21)
(1.01306 0.294367 -1.03137e-21)
(1.0229 0.293984 -1.38448e-21)
(1.0329 0.292822 0)
(1.043 0.290859 -3.9192e-21)
(1.05293 0.288026 3.78181e-21)
(1.06245 0.284351 4.64169e-21)
(1.07164 0.27992 -4.70278e-21)
(1.08054 0.274763 5.38803e-21)
(1.08907 0.268915 2.77055e-21)
(1.097 0.262475 -6.39424e-21)
(1.10421 0.255566 6.1673e-21)
(1.11085 0.248215 -1.05189e-20)
(1.11694 0.240452 5.79412e-23)
(1.12245 0.232331 1.13743e-20)
(1.12733 0.223957 8.19517e-21)
(1.1315 0.215495 -2.0882e-20)
(1.13504 0.206968 1.73886e-20)
(1.13803 0.198328 2.30415e-21)
(1.14047 0.189616 -6.97484e-21)
(1.14239 0.180869 -2.47166e-21)
(1.14378 0.172176 -2.53086e-21)
(1.14466 0.163637 0)
(1.14509 0.155218 1.22213e-21)
(1.14509 0.14687 1.2409e-21)
(1.14468 0.138626 0)
(1.14387 0.130522 6.56414e-22)
(1.14269 0.122586 -4.35473e-23)
(0.920473 0.238183 3.13695e-22)
(0.925732 0.243249 8.76504e-22)
(0.931052 0.248113 -6.43427e-22)
(0.936519 0.252961 -4.86847e-22)
(0.942255 0.257553 0)
(0.948312 0.261975 0)
(0.954788 0.266139 0)
(0.961589 0.269852 0)
(0.96886 0.273308 -3.21225e-22)
(0.976568 0.276331 -1.49641e-22)
(0.984553 0.278717 0)
(0.992884 0.28056 -1.26325e-21)
(1.00166 0.281916 1.27581e-21)
(1.01059 0.282507 2.94993e-21)
(1.01953 0.282309 -4.35337e-21)
(1.02863 0.281433 2.3821e-21)
(1.03786 0.279857 -1.5583e-21)
(1.04698 0.277508 1.59919e-21)
(1.05579 0.274395 -3.90816e-21)
(1.06433 0.270591 1.9851e-21)
(1.07266 0.26612 -2.38173e-21)
(1.0807 0.261004 -2.57741e-21)
(1.08823 0.255316 0)
(1.09516 0.249157 -5.65769e-21)
(1.10159 0.242554 3.13016e-21)
(1.10754 0.235533 3.30557e-21)
(1.11298 0.228141 -2.72599e-22)
(1.11786 0.220468 3.34558e-21)
(1.12209 0.212659 7.26186e-21)
(1.12573 0.20474 -3.61838e-21)
(1.12886 0.196675 -2.01847e-21)
(1.13149 0.188501 -1.43236e-22)
(1.1336 0.180256 8.30653e-21)
(1.13522 0.172022 -8.4493e-21)
(1.13634 0.163896 0)
(1.13701 0.15585 -2.20285e-21)
(1.13728 0.147843 -1.15419e-21)
(1.13712 0.139909 0)
(1.13657 0.132082 -2.96031e-22)
(1.13565 0.124393 0)
(0.926133 0.231812 -1.2584e-22)
(0.931018 0.236373 -9.35555e-22)
(0.935959 0.240745 -2.00059e-22)
(0.94103 0.245093 9.44671e-22)
(0.946335 0.249207 0)
(0.951919 0.253164 -6.37273e-22)
(0.957866 0.256888 4.01791e-22)
(0.964096 0.260214 3.26304e-23)
(0.970734 0.263312 -3.28082e-23)
(0.977753 0.266032 2.11016e-22)
(0.985019 0.268198 0)
(0.992593 0.269893 0)
(1.00056 0.271167 0)
(1.00868 0.271775 -1.47226e-21)
(1.01683 0.271693 1.99048e-21)
(1.02514 0.271017 -2.01764e-21)
(1.03359 0.269727 0)
(1.04198 0.267748 -4.21637e-21)
(1.05011 0.26508 -6.64315e-21)
(1.05805 0.261784 1.58715e-20)
(1.06582 0.257877 -7.41184e-21)
(1.07337 0.253373 0)
(1.08049 0.248325 0)
(1.08709 0.242814 2.52487e-21)
(1.09327 0.236868 7.70252e-21)
(1.09904 0.230508 -5.31857e-21)
(1.10435 0.223773 7.7288e-23)
(1.10916 0.21674 -1.22089e-20)
(1.11338 0.209536 9.24879e-21)
(1.11707 0.202189 9.30413e-23)
(1.12028 0.19467 0)
(1.12302 0.187015 -1.81067e-21)
(1.12528 0.17926 1.74102e-21)
(1.12707 0.171479 1.92565e-21)
(1.12837 0.163765 2.7566e-23)
(1.12925 0.156096 -2.84244e-21)
(1.12972 0.148439 1.95974e-21)
(1.12979 0.140827 -3.97421e-21)
(1.12946 0.133293 2.50494e-21)
(1.12877 0.125865 0)
(0.931207 0.225986 -3.51346e-23)
(0.935761 0.230107 -2.89755e-22)
(0.940367 0.234052 0)
(0.94509 0.237967 3.6674e-22)
(0.950017 0.241666 0)
(0.95519 0.245218 9.87948e-22)
(0.960678 0.248558 -1.85686e-22)
(0.966416 0.251542 -6.97892e-23)
(0.972508 0.254322 -1.5389e-22)
(0.978936 0.256768 0)
(0.985582 0.258726 -5.47742e-22)
(0.992503 0.260271 -9.20485e-22)
(0.999771 0.26145 1.0972e-21)
(1.00719 0.262044 1.81249e-21)
(1.01465 0.262029 -2.91e-21)
(1.02226 0.261492 0)
(1.03001 0.260413 0)
(1.03772 0.25872 2.21584e-22)
(1.04524 0.256404 5.6944e-21)
(1.05261 0.253519 -5.76111e-21)
(1.05985 0.250077 -3.68069e-21)
(1.06692 0.246085 -3.93764e-21)
(1.07363 0.24158 3.79688e-21)
(1.07989 0.236629 0)
(1.08579 0.231257 6.73659e-21)
(1.09134 0.225481 -1.87581e-20)
(1.09649 0.219334 1.22926e-20)
(1.10119 0.212882 -1.04848e-20)
(1.10535 0.206234 5.35707e-21)
(1.10903 0.19942 -2.0806e-22)
(1.11227 0.192415 5.92968e-21)
(1.11507 0.185253 -1.21714e-20)
(1.11743 0.177968 4.61097e-21)
(1.11933 0.170629 -6.40456e-21)
(1.12078 0.163321 5.00348e-21)
(1.12182 0.156028 -3.39061e-21)
(1.12246 0.148723 3.43401e-21)
(1.12271 0.141438 2.59988e-21)
(1.12258 0.134203 -2.66408e-21)
(1.12208 0.127049 0)
(0.935776 0.220636 0)
(0.940034 0.224372 0)
(0.944341 0.227944 -1.84568e-23)
(0.948753 0.23148 -4.20386e-22)
(0.953347 0.234816 4.04832e-22)
(0.958157 0.238014 -1.50262e-21)
(0.963244 0.241017 9.05933e-23)
(0.968551 0.2437 -6.02819e-23)
(0.97417 0.246197 4.38458e-22)
(0.980083 0.248395 -5.02679e-22)
(0.986191 0.250161 6.33393e-22)
(0.992543 0.251561 7.34195e-23)
(0.999203 0.252637 -1.08495e-21)
(1.006 0.253196 7.67357e-22)
(1.01285 0.253217 4.15347e-21)
(1.01984 0.252775 -2.98489e-21)
(1.02696 0.251851 -2.14687e-21)
(1.03407 0.250379 8.19066e-21)
(1.04103 0.248345 7.17795e-21)
(1.04787 0.245795 -1.03882e-20)
(1.05461 0.242736 8.42737e-21)
(1.06122 0.239173 -5.73273e-21)
(1.06753 0.235129 3.5132e-21)
(1.07345 0.230661 -3.46733e-21)
(1.07906 0.225789 3.69772e-21)
(1.08436 0.220529 0)
(1.08932 0.214907 0)
(1.09387 0.208979 2.3547e-21)
(1.09795 0.202839 0)
(1.10157 0.196516 -2.56471e-21)
(1.10481 0.189992 0)
(1.10763 0.183295 7.96154e-21)
(1.11004 0.176458 -2.80036e-21)
(1.11202 0.169543 1.47419e-21)
(1.11357 0.162629 1.51381e-21)
(1.11473 0.155706 0)
(1.11551 0.14875 0)
(1.11591 0.141791 -7.9796e-22)
(1.11593 0.134861 1.18917e-21)
(1.1156 0.127986 -7.93017e-22)
(0.939904 0.215703 2.32153e-22)
(0.943895 0.219101 0)
(0.947933 0.222344 4.65972e-23)
(0.952067 0.225547 3.21565e-22)
(0.956362 0.228565 -1.07082e-21)
(0.96085 0.231451 1.30244e-21)
(0.965584 0.234157 -2.37671e-22)
(0.970511 0.236573 0)
(0.975713 0.238817 -1.07325e-22)
(0.981175 0.240793 2.78332e-22)
(0.986811 0.242382 4.5576e-22)
(0.992663 0.243644 -4.62364e-23)
(0.99879 0.244617 -1.01304e-21)
(1.00505 0.245131 1.8072e-21)
(1.01135 0.245165 1.2442e-21)
(1.01779 0.244787 0)
(1.02435 0.243978 -1.67854e-21)
(1.03092 0.242678 -3.99891e-21)
(1.03736 0.24087 -2.52203e-21)
(1.04371 0.238593 6.85895e-21)
(1.04999 0.235853 -4.77234e-21)
(1.05616 0.23265 2.81971e-21)
(1.06208 0.229 0)
(1.06767 0.224948 3.27172e-21)
(1.07298 0.220513 -3.48822e-21)
(1.07803 0.215707 0)
(1.08278 0.210552 3.6331e-21)
(1.08716 0.205095 8.05208e-21)
(1.09112 0.199418 -1.2591e-20)
(1.09467 0.193547 8.54139e-21)
(1.09786 0.187467 4.56201e-21)
(1.10067 0.181206 -7.07199e-21)
(1.10309 0.174791 -2.51638e-21)
(1.10512 0.168281 -2.42995e-21)
(1.10674 0.161748 0)
(1.10799 0.155184 0)
(1.10887 0.148569 0)
(1.10939 0.141934 6.63358e-22)
(1.10954 0.135307 -6.94852e-22)
(1.10935 0.128714 6.7738e-22)
(0.943646 0.211139 -3.70568e-22)
(0.947396 0.214238 3.51162e-22)
(0.95119 0.21719 -2.9956e-22)
(0.955072 0.220099 -2.26364e-22)
(0.959099 0.222835 6.46768e-22)
(0.963298 0.225446 -5.69021e-22)
(0.967715 0.227889 1.837e-23)
(0.972304 0.230068 -2.91213e-23)
(0.977137 0.232088 2.6711e-22)
(0.982201 0.233864 -8.00504e-22)
(0.987419 0.235291 -2.93918e-22)
(0.99283 0.236425 -3.42456e-22)
(0.998486 0.237298 1.19657e-21)
(1.00426 0.23776 -1.91673e-21)
(1.01008 0.237792 9.19896e-22)
(1.01603 0.237455 2.6192e-21)
(1.02209 0.236732 -2.64317e-21)
(1.02816 0.235566 1.70183e-21)
(1.03413 0.233941 3.38981e-22)
(1.04003 0.231889 -1.72244e-21)
(1.04588 0.229414 0)
(1.05164 0.226516 0)
(1.05719 0.223202 0)
(1.06245 0.21951 5.64585e-21)
(1.06748 0.215457 -5.7174e-21)
(1.07227 0.211051 0)
(1.0768 0.206312 -3.43502e-21)
(1.081 0.201278 7.07872e-21)
(1.08482 0.19602 -1.09829e-20)
(1.08827 0.190563 0)
(1.09139 0.184894 4.02266e-21)
(1.09416 0.179038 -2.08844e-21)
(1.09658 0.173021 -4.32391e-21)
(1.09862 0.166895 6.69422e-21)
(1.10028 0.160725 -2.38174e-21)
(1.10158 0.154507 5.77416e-21)
(1.10254 0.148225 0)
(1.10315 0.141906 -3.81864e-23)
(1.10341 0.135579 2.99345e-22)
(1.10334 0.129266 -1.75427e-23)
(0.947048 0.206905 1.96015e-22)
(0.950577 0.209736 -2.56489e-23)
(0.95415 0.21243 2.86834e-22)
(0.957803 0.215078 4.32124e-22)
(0.961586 0.217564 0)
(0.965525 0.219931 4.49277e-22)
(0.969657 0.222141 -1.26526e-22)
(0.973944 0.224109 1.08177e-22)
(0.978447 0.225928 -1.85946e-22)
(0.983155 0.227524 5.67335e-22)
(0.988001 0.228805 -5.71768e-22)
(0.99302 0.229819 -1.13565e-21)
(0.998256 0.230597 1.25147e-21)
(1.0036 0.231005 -3.10748e-21)
(1.00899 0.231026 6.7392e-22)
(1.01449 0.230714 2.01507e-21)
(1.02011 0.230055 -1.19844e-21)
(1.02573 0.228995 -1.35986e-21)
(1.03128 0.227518 3.29568e-21)
(1.03677 0.225652 -1.6496e-21)
(1.04222 0.223401 1.84475e-21)
(1.04759 0.220761 0)
(1.05279 0.217735 0)
(1.05774 0.214356 0)
(1.06248 0.210637 5.29507e-21)
(1.06702 0.206585 -2.40298e-21)
(1.07132 0.202215 -5.69856e-21)
(1.07534 0.197561 -2.96691e-21)
(1.079 0.192684 -6.55032e-21)
(1.08234 0.187605 9.89714e-21)
(1.08537 0.182315 7.11702e-21)
(1.08808 0.176836 -1.10595e-20)
(1.09046 0.17119 5.59884e-21)
(1.09249 0.165425 0)
(1.09417 0.159601 1.98334e-21)
(1.09551 0.153715 -7.27801e-21)
(1.09652 0.147754 1.08061e-21)
(1.0972 0.141744 -1.08091e-21)
(1.09754 0.135709 -1.09908e-21)
(1.09756 0.129674 6.14431e-22)
(0.950149 0.202965 -3.22032e-22)
(0.953476 0.205558 -2.23492e-23)
(0.956845 0.208022 4.67882e-22)
(0.960289 0.210437 -7.64264e-22)
(0.963851 0.2127 3.52244e-22)
(0.967552 0.214849 0)
(0.971428 0.216851 0)
(0.975441 0.21863 0)
(0.979647 0.22027 8.85938e-23)
(0.984036 0.221704 -3.18322e-22)
(0.988549 0.222852 1.26616e-21)
(0.993216 0.223756 -6.34965e-22)
(0.998077 0.224445 -1.65953e-21)
(1.00304 0.224799 1.25834e-21)
(1.00804 0.224804 1.7728e-21)
(1.01314 0.224506 -1.78925e-21)
(1.01835 0.223893 1.14216e-21)
(1.02357 0.222918 1.29541e-21)
(1.02872 0.221563 2.69174e-21)
(1.03384 0.219853 1.60787e-21)
(1.03892 0.21779 -4.99958e-21)
(1.04394 0.215371 3.80338e-21)
(1.04881 0.212594 -1.92933e-21)
(1.05345 0.209487 -4.39339e-21)
(1.05792 0.206061 1.13364e-20)
(1.06221 0.202323 -2.2211e-21)
(1.06629 0.198282 2.49128e-21)
(1.07012 0.193969 2.8184e-21)
(1.07363 0.189436 5.804e-21)
(1.07683 0.184703 -3.03341e-23)
(1.07976 0.179762 -3.13249e-21)
(1.08239 0.174631 -1.68276e-21)
(1.08473 0.169331 -1.74612e-21)
(1.08673 0.163906 0)
(1.0884 0.158409 -3.63463e-21)
(1.08976 0.152841 -4.09794e-23)
(1.0908 0.147188 2.83555e-21)
(1.09153 0.141475 4.34101e-21)
(1.09193 0.135726 -2.44199e-21)
(1.09204 0.129964 9.37261e-22)
(0.952981 0.199291 7.34333e-22)
(0.956123 0.20167 -4.01774e-22)
(0.959305 0.203926 -6.45272e-22)
(0.962556 0.206133 1.94697e-22)
(0.965915 0.208197 0)
(0.9694 0.210151 0)
(0.973041 0.211968 0)
(0.976806 0.213578 5.38342e-24)
(0.980744 0.215057 -2.67701e-22)
(0.984845 0.216346 8.15739e-23)
(0.989058 0.217373 0)
(0.993408 0.218176 1.29454e-21)
(0.997931 0.218782 -7.52752e-22)
(1.00254 0.219084 -1.12782e-21)
(1.00719 0.219068 1.58267e-21)
(1.01194 0.218777 -5.08084e-21)
(1.01678 0.218199 1.84085e-21)
(1.02163 0.217292 -2.14576e-21)
(1.02643 0.216038 -2.56848e-21)
(1.03119 0.214459 -2.84705e-21)
(1.03594 0.212557 2.87964e-21)
(1.04063 0.210327 0)
(1.04518 0.207767 -1.83429e-21)
(1.04955 0.204897 -3.89848e-21)
(1.05376 0.201731 1.8421e-21)
(1.0578 0.19827 0)
(1.06166 0.194524 -2.37189e-21)
(1.0653 0.190518 -2.33456e-21)
(1.06864 0.186297 0)
(1.07171 0.18188 -2.75086e-21)
(1.07453 0.177258 -8.49192e-21)
(1.07708 0.17245 8.75592e-21)
(1.07935 0.167473 -6.06253e-21)
(1.08131 0.162366 1.57492e-21)
(1.08296 0.157178 0)
(1.08432 0.151911 -3.31322e-21)
(1.08538 0.146553 3.35039e-21)
(1.08614 0.141127 0)
(1.08659 0.135655 -2.25793e-22)
(1.08675 0.130157 0)
(0.955575 0.195856 -6.0213e-22)
(0.958545 0.198043 -2.08825e-22)
(0.961553 0.200113 2.08943e-22)
(0.964627 0.202132 0)
(0.967799 0.204017 0)
(0.971085 0.205797 -1.22091e-22)
(0.974512 0.207447 3.76211e-23)
(0.97805 0.208905 8.04579e-23)
(0.981744 0.21024 1.61121e-22)
(0.985584 0.211397 4.30251e-22)
(0.989524 0.212315 -4.32885e-22)
(0.993587 0.213027 0)
(0.997805 0.213556 -7.13207e-23)
(1.0021 0.213808 2.09787e-21)
(1.00644 0.213771 1.41894e-21)
(1.01086 0.213481 1.56002e-22)