# p  FACE_DATA 180
#  x  y  z  p
-0.49912 -0.0178469 0.5 0.294776
-0.496703 -0.0110232 0.5 0.042074
-0.492976 -0.00470316 0.5 -0.181714
-0.488305 0.00101201 0.5 -0.333957
-0.483079 0.00619137 0.5 -0.42966
-0.477364 0.0110256 0.5 -0.49827
-0.471461 0.0154276 0.5 -0.547992
-0.465306 0.0195404 0.5 -0.584302
-0.4589 0.0234414 0.5 -0.610879
-0.452528 0.0270077 0.5 -0.626803
-0.445952 0.0304188 0.5 -0.636297
-0.439149 0.0337051 0.5 -0.64145
-0.432452 0.0367332 0.5 -0.641953
-0.42574 0.0395854 0.5 -0.640346
-0.41874 0.0423878 0.5 -0.638629
-0.411728 0.0450352 0.5 -0.636496
-0.404865 0.0474841 0.5 -0.633236
-0.397915 0.0498366 0.5 -0.630085
-0.390751 0.0521356 0.5 -0.627351
-0.383559 0.0543232 0.5 -0.624452
-0.376523 0.0563547 0.5 -0.620736
-0.369482 0.0582886 0.5 -0.617121
-0.362276 0.0601709 0.5 -0.613863
-0.354912 0.0619957 0.5 -0.610582
-0.347677 0.0636973 0.5 -0.606691
-0.340599 0.0652782 0.5 -0.602288
-0.333405 0.0668064 0.5 -0.598244
-0.326085 0.0682825 0.5 -0.594389
-0.318645 0.0697025 0.5 -0.590382
-0.31134 0.0710223 0.5 -0.585943
-0.30418 0.0722464 0.5 -0.581232
-0.296921 0.0734217 0.5 -0.576903
-0.289562 0.0745469 0.5 -0.572811
-0.28211 0.0756193 0.5 -0.568719
-0.274704 0.0766147 0.5 -0.564455
-0.267401 0.0775122 0.5 -0.558744
-0.260063 0.0783355 0.5 -0.549371
-0.252654 0.0791184 0.5 -0.53926
-0.245219 0.0798859 0.5 -0.531847
-0.2378 0.080663 0.5 -0.527135
-0.224839 0.0817289 0.5 -0.535072
-0.206269 0.0830322 0.5 -0.514363
-0.187674 0.0840951 0.5 -0.504102
-0.169064 0.084806 0.5 -0.493032
-0.150345 0.0852257 0.5 -0.479218
-0.131676 0.08537 0.5 -0.465544
-0.113021 0.0852486 0.5 -0.452377
-0.0943277 0.084875 0.5 -0.439437
-0.0756917 0.084257 0.5 -0.426578
-0.0570011 0.0834008 0.5 -0.413571
-0.0383534 0.0823192 0.5 -0.400844
-0.0197504 0.0810174 0.5 -0.388158
-0.00112107 0.0795021 0.5 -0.375406
0.0174734 0.0777822 0.5 -0.362989
0.0360496 0.0758617 0.5 -0.350418
0.0546122 0.0737509 0.5 -0.337901
0.0731526 0.0714525 0.5 -0.325627
0.0916487 0.0689774 0.5 -0.313109
0.110146 0.0663258 0.5 -0.300784
0.128625 0.0635019 0.5 -0.288403
0.147048 0.0605228 0.5 -0.275837
0.165487 0.0573791 0.5 -0.263558
0.183835 0.0540934 0.5 -0.251044
0.202198 0.0506563 0.5 -0.238508
0.220585 0.0470661 0.5 -0.226068
0.238853 0.0433596 0.5 -0.213374
0.257171 0.0395065 0.5 -0.200861
0.275342 0.0355523 0.5 -0.188151
0.293582 0.0314574 0.5 -0.17537
0.311841 0.0272353 0.5 -0.162522
0.330014 0.022917 0.5 -0.149482
0.348196 0.0184857 0.5 -0.136516
0.36633 0.0139572 0.5 -0.123308
0.384412 0.00933809 0.5 -0.110147
0.402529 0.00460539 0.5 -0.0967104
0.420474 -0.00018151 0.5 -0.0833992
0.438458 -0.00509393 0.5 -0.0698532
0.456725 -0.0102191 0.5 -0.0565255
0.474747 -0.0154967 0.5 -0.0416617
0.491852 -0.0216996 0.5 -0.034717
-0.269191 -0.062892 0.5 0.13669
-0.275538 -0.0632599 0.5 0.136857
-0.281914 -0.0636378 0.5 0.136718
-0.288285 -0.0640136 0.5 0.135772
-0.294613 -0.0643754 0.5 0.134711
-0.300863 -0.0647111 0.5 0.134093
-0.307004 -0.0650089 0.5 0.134527
-0.313327 -0.0652771 0.5 0.135939
-0.319845 -0.0655212 0.5 0.137602
-0.326263 -0.0657323 0.5 0.139328
-0.332578 -0.0659087 0.5 0.141253
-0.338786 -0.0660487 0.5 0.143382
-0.344885 -0.0661508 0.5 0.145757
-0.351121 -0.066215 0.5 0.148795
-0.357596 -0.0662389 0.5 0.152489
-0.364053 -0.0662174 0.5 0.156586
-0.370372 -0.0661484 0.5 0.161083
-0.37655 -0.0660305 0.5 0.16597
-0.382602 -0.0658618 0.5 0.171397
-0.388925 -0.0656228 0.5 0.178338
-0.395479 -0.0653072 0.5 0.186663
-0.401845 -0.0649267 0.5 0.195706
-0.408019 -0.0644808 0.5 0.205625
-0.414058 -0.0639631 0.5 0.216895
-0.420377 -0.0633227 0.5 0.231402
-0.426881 -0.0625531 0.5 0.248988
-0.433116 -0.0616939 0.5 0.268399
-0.439078 -0.0607466 0.5 0.290279
-0.445269 -0.0596051 0.5 0.318687
-0.451674 -0.0582403 0.5 0.354273
-0.457727 -0.0567413 0.5 0.394489
-0.463645 -0.0550329 0.5 0.442471
-0.469708 -0.0529719 0.5 0.501793
-0.47554 -0.0506191 0.5 0.567121
-0.481121 -0.0478748 0.5 0.637432
-0.486533 -0.0445602 0.5 0.704762
-0.49139 -0.0406721 0.5 0.748292
-0.495497 -0.0360174 0.5 0.7508
-0.498337 -0.0305615 0.5 0.687687
-0.499668 -0.0245218 0.5 0.539248
0.493989 -0.0255671 0.5 0.030014
0.481661 -0.0256584 0.5 0.0687579
0.468743 -0.0250493 0.5 0.0977155
0.455903 -0.0243816 0.5 0.122767
0.443086 -0.0237407 0.5 0.140317
0.43032 -0.0231534 0.5 0.1547
0.417436 -0.0226209 0.5 0.16567
0.404557 -0.0221623 0.5 0.174151
0.392009 -0.0217848 0.5 0.181451
0.378964 -0.0214625 0.5 0.187108
0.366089 -0.0212219 0.5 0.191504
0.353553 -0.0210565 0.5 0.195468
0.340652 -0.0209519 0.5 0.198599
0.327676 -0.0209217 0.5 0.200727
0.31499 -0.0209615 0.5 0.202587
0.302291 -0.0210626 0.5 0.204125
0.289292 -0.0212313 0.5 0.205114
0.276404 -0.021465 0.5 0.205577
0.263762 -0.0217556 0.5 0.205884
0.251008 -0.0221051 0.5 0.205989
0.238056 -0.0225182 0.5 0.205784
0.225182 -0.0229871 0.5 0.205225
0.212496 -0.0235049 0.5 0.204444
0.199757 -0.0240769 0.5 0.203509
0.186884 -0.0247052 0.5 0.202471
0.174002 -0.0253829 0.5 0.201302
0.161252 -0.026102 0.5 0.199915
0.148534 -0.0268664 0.5 0.198366
0.135727 -0.0276797 0.5 0.196744
0.122864 -0.0285371 0.5 0.195123
0.110074 -0.0294292 0.5 0.193357
0.0973497 -0.0303577 0.5 0.191331
0.0845803 -0.0313282 0.5 0.189192
0.0717868 -0.032334 0.5 0.18712
0.0590033 -0.0333678 0.5 0.185147
0.0462363 -0.034431 0.5 0.182886
0.0334662 -0.0355272 0.5 0.18043
0.0206994 -0.0366506 0.5 0.177976
0.0079632 -0.0377921 0.5 0.175738
-0.0047917 -0.0389536 0.5 0.173493
-0.0175901 -0.0401414 0.5 0.170887
-0.0303693 -0.0413491 0.5 0.168185
-0.0430918 -0.0425653 0.5 0.165685
-0.0557889 -0.0437854 0.5 0.163481
-0.068574 -0.0450224 0.5 0.160963
-0.0814004 -0.0462753 0.5 0.158217
-0.0941401 -0.0475251 0.5 0.155587
-0.106769 -0.0487602 0.5 0.15337
-0.119516 -0.0499993 0.5 0.151161
-0.132401 -0.0512485 0.5 0.148566
-0.145178 -0.0524814 0.5 0.146031
-0.157806 -0.0536836 0.5 0.143945
-0.170519 -0.0548698 0.5 0.142177
-0.183408 -0.056051 0.5 0.139988
-0.196219 -0.0572023 0.5 0.137581
-0.208833 -0.058302 0.5 0.135503
-0.221521 -0.0593569 0.5 0.134852
-0.23434 -0.0603605 0.5 0.134861
-0.24704 -0.0613079 0.5 0.132954
-0.259692 -0.0622418 0.5 0.131522
