/*--------------------------------*- C++ -*----------------------------------*\
| =========                 |                                                 |
| \\      /  F ield         | OpenFOAM: The Open Source CFD Toolbox           |
|  \\    /   O peration     | Version:  3.0.1                                 |
|   \\  /    A nd           | Web:      www.OpenFOAM.org                      |
|    \\/     M anipulation  |                                                 |
\*---------------------------------------------------------------------------*/
FoamFile
{
    version     2.0;
    format      ascii;
    class       volScalarField;
    location    "500";
    object      nuTilda;
}
// * * * * * * * * * * * * * * * * * * * * * * * * * * * * * * * * * * * * * //

dimensions      [0 2 -1 0 0 0 0];

internalField   nonuniform List<scalar> 
58000
(
0.000803942
0.000743143
0.0006713
0.000608821
0.000563086
0.000520427
0.000489416
0.000466333
0.00044773
0.000435712
0.000428547
0.000423415
0.000419782
0.000419433
0.000418978
0.00041848
0.000418161
0.00041877
0.000419976
0.000421285
0.000422765
0.000424197
0.000425803
0.000427231
0.000428425
0.000429414
0.000430127
0.000430591
0.000430941
0.000430891
0.000430551
0.000429911
0.000428655
0.000426934
0.000424351
0.000420831
0.000416839
0.000412842
0.000409056
0.000406713
0.00302268
0.00271757
0.00239348
0.00208122
0.00182326
0.00160292
0.00142899
0.00129708
0.00118972
0.00110744
0.00104647
0.000997614
0.000956992
0.000927865
0.000906067
0.000888237
0.000873726
0.000863709
0.000856632
0.000850284
0.000845021
0.000838085
0.000831625
0.000825307
0.000818136
0.000810098
0.000801392
0.000792671
0.000784853
0.00077676
0.000768162
0.000759119
0.000749999
0.000741796
0.000732749
0.000722615
0.000712299
0.000702931
0.000695184
0.000689446
0.0052822
0.00493541
0.00453494
0.00409872
0.00370567
0.00335059
0.00304581
0.00279689
0.00258218
0.00240938
0.00227695
0.00216738
0.00207253
0.00200191
0.0019472
0.00190012
0.00185887
0.00182696
0.00180321
0.00178263
0.00176345
0.00174316
0.00172543
0.0017094
0.00169301
0.00167581
0.00165782
0.00163985
0.00162386
0.00160637
0.00158673
0.00156535
0.00154234
0.00151858
0.00149357
0.00146664
0.00143855
0.00140972
0.00138122
0.00135557
0.00750995
0.00714557
0.00670751
0.00622262
0.00575652
0.00531119
0.00491623
0.00457737
0.00427124
0.00401354
0.00380771
0.00363216
0.00347619
0.00335472
0.00325807
0.0031733
0.00309692
0.00303432
0.00298522
0.00294291
0.0029018
0.00286083
0.00282519
0.00279356
0.00276248
0.00273068
0.00269821
0.00266487
0.00263313
0.00260072
0.0025665
0.0025311
0.00249303
0.00245347
0.00241232
0.00236858
0.00232344
0.00227698
0.00223044
0.00218635
0.00970767
0.00934187
0.00889211
0.00838309
0.00788194
0.00738992
0.00693054
0.00652798
0.00615251
0.00582351
0.00555099
0.00531182
0.00509415
0.00491896
0.00477604
0.00464847
0.00453213
0.00443427
0.00435469
0.00428403
0.00421618
0.0041501
0.00409221
0.00404091
0.00399169
0.00394077
0.00388804
0.00383555
0.00378618
0.00373701
0.00368504
0.00363028
0.00357301
0.00351495
0.003455
0.00339168
0.00332559
0.00325859
0.0031913
0.00312608
0.0118755
0.0115142
0.0110648
0.0105477
0.0100311
0.00951093
0.00901766
0.00857054
0.0081448
0.00776269
0.0074358
0.00714195
0.00686875
0.00664224
0.00645331
0.00628205
0.00612403
0.00598825
0.00587571
0.00577294
0.00567462
0.00557985
0.00549625
0.00542206
0.00534908
0.00527531
0.00520058
0.00512728
0.00505747
0.00498744
0.00491553
0.00484005
0.00476124
0.00468168
0.00460021
0.00451492
0.00442616
0.00433612
0.00424546
0.00415649
0.0140182
0.0136644
0.0132212
0.0127059
0.0121854
0.0116536
0.0111399
0.0106663
0.0102052
0.00978174
0.00941341
0.0090761
0.00875646
0.00848333
0.0082512
0.00803801
0.00783993
0.00766552
0.00751682
0.00738077
0.00725073
0.00712565
0.00701453
0.00691354
0.00681509
0.00671646
0.00661766
0.00651983
0.00642766
0.00633508
0.00623941
0.00614124
0.00603912
0.00593518
0.00583067
0.00572195
0.0056091
0.00549432
0.00537842
0.00526376
0.0161398
0.0157949
0.0153607
0.014852
0.0143326
0.0137999
0.0132773
0.0127892
0.0123054
0.0118537
0.0114518
0.0110777
0.0107188
0.0104083
0.010139
0.00988748
0.00964939
0.00943748
0.00925435
0.00908578
0.00892399
0.00876828
0.00862681
0.00849811
0.00837369
0.0082485
0.00812259
0.00799912
0.00788113
0.00776385
0.00764411
0.00752053
0.00739382
0.0072649
0.0071355
0.00700167
0.00686376
0.00672233
0.00657937
0.00643733
0.018244
0.0179086
0.017485
0.0169862
0.0164729
0.0159435
0.0154187
0.0149234
0.0144265
0.013955
0.0135306
0.0131294
0.0127379
0.0123939
0.0120915
0.0118058
0.0115328
0.0112865
0.0110707
0.0108713
0.010678
0.01049
0.0103182
0.0101616
0.0100086
0.0098555
0.00970259
0.00955141
0.00940759
0.00926462
0.00911895
0.00896902
0.00881568
0.00866018
0.00850446
0.00834412
0.00817917
0.00801014
0.00783915
0.00766863
0.0203337
0.020008
0.0195957
0.0191083
0.0186038
0.0180809
0.0175579
0.0170591
0.0165569
0.0160738
0.0156334
0.015211
0.0147961
0.0144256
0.0140953
0.01378
0.0134757
0.0131977
0.0129505
0.012719
0.0124948
0.0122773
0.0120758
0.0118898
0.0117091
0.0115279
0.0113459
0.011167
0.0109953
0.0108258
0.0106524
0.0104756
0.0102941
0.0101117
0.00992913
0.00974162
0.00954869
0.00935109
0.00915109
0.00895114
0.0224114
0.0220954
0.0216945
0.0212192
0.0207251
0.0202108
0.019693
0.0191952
0.0186911
0.0182013
0.0177502
0.0173131
0.0168799
0.0164864
0.0161316
0.0157904
0.0154585
0.0151523
0.0148769
0.0146168
0.0143643
0.0141162
0.0138855
0.0136719
0.0134623
0.0132535
0.0130433
0.0128361
0.0126362
0.0124391
0.0122383
0.0120338
0.0118237
0.0116135
0.0114033
0.0111886
0.0109665
0.0107394
0.0105096
0.0102794
0.024479
0.0241724
0.0237829
0.0233201
0.0228371
0.0223326
0.0218219
0.021328
0.0208248
0.0203317
0.0198723
0.019426
0.0189798
0.0185696
0.0181957
0.0178326
0.0174767
0.017145
0.0168437
0.0165569
0.0162755
0.0159988
0.0157405
0.015498
0.0152607
0.0150225
0.0147844
0.0145482
0.0143197
0.0140947
0.0138676
0.013636
0.0133977
0.0131591
0.0129206
0.0126774
0.0124262
0.0121695
0.0119096
0.0116489
0.0265381
0.0262407
0.0258624
0.0254121
0.0249405
0.0244465
0.0239442
0.0234558
0.0229559
0.0224626
0.021999
0.0215455
0.0210882
0.0206659
0.0202767
0.0198953
0.0195175
0.019163
0.0188383
0.0185283
0.0182217
0.017918
0.017632
0.0173618
0.0170957
0.0168286
0.0165619
0.0162993
0.0160438
0.0157911
0.0155368
0.0152775
0.0150106
0.0147426
0.0144759
0.0142041
0.0139238
0.0136374
0.0133472
0.0130556
0.0285898
0.0283012
0.0279338
0.027496
0.0270361
0.0265529
0.0260598
0.025578
0.0250829
0.0245916
0.0241265
0.0236688
0.0232042
0.0227716
0.0223692
0.0219714
0.0215775
0.021204
0.020858
0.0205239
0.0201934
0.0198643
0.0195496
0.019253
0.0189623
0.0186691
0.0183749
0.0180843
0.0178025
0.0175226
0.0172397
0.0169532
0.0166584
0.0163616
0.0160658
0.0157654
0.015456
0.0151398
0.0148192
0.0144966
0.0306347
0.0303548
0.0299982
0.0295727
0.0291244
0.0286523
0.0281688
0.0276943
0.0272051
0.0267172
0.0262524
0.0257927
0.0253235
0.0248828
0.0244686
0.0240593
0.0236515
0.0232616
0.0228967
0.0225408
0.0221846
0.0218319
0.0214936
0.0211719
0.0208554
0.0205379
0.0202177
0.0199003
0.0195924
0.0192855
0.0189745
0.0186596
0.0183373
0.0180122
0.0176875
0.0173585
0.0170198
0.0166737
0.0163227
0.0159689
0.0326731
0.0324019
0.0320561
0.0316428
0.0312062
0.0307453
0.0302716
0.0298049
0.0293223
0.0288388
0.0283757
0.0279154
0.0274436
0.0269974
0.0265747
0.0261552
0.0257353
0.0253311
0.0249495
0.0245746
0.0241965
0.0238201
0.0234596
0.0231142
0.022773
0.0224314
0.0220861
0.0217427
0.0214091
0.0210757
0.0207374
0.0203952
0.020045
0.0196915
0.0193381
0.0189804
0.0186125
0.0182365
0.017855
0.0174702
0.0347057
0.0344432
0.0341081
0.033707
0.0332821
0.0328322
0.0323685
0.03191
0.0314343
0.0309559
0.0304954
0.0300358
0.0295629
0.0291128
0.0286837
0.0282557
0.0278256
0.0274088
0.0270123
0.0266205
0.0262231
0.0258257
0.0254437
0.0250755
0.0247106
0.0243454
0.0239757
0.0236071
0.0232482
0.022889
0.0225239
0.0221537
0.021777
0.021396
0.0210144
0.0206282
0.0202312
0.0198256
0.0194138
0.0189979
0.0367331
0.0364792
0.0361547
0.0357658
0.0353527
0.0349137
0.0344598
0.0340096
0.0335412
0.0330685
0.0326112
0.0321532
0.0316803
0.0312276
0.0307934
0.0303585
0.0299196
0.0294919
0.0290821
0.0286749
0.0282602
0.0278436
0.0274413
0.0270517
0.0266641
0.0262749
0.0258827
0.0254899
0.0251052
0.0247218
0.0243314
0.0239347
0.0235315
0.0231233
0.0227138
0.0222994
0.0218736
0.0214385
0.0209966
0.0205499
0.0387556
0.03851
0.0381959
0.0378192
0.037419
0.0369898
0.0365457
0.0361038
0.0356429
0.0351763
0.0347229
0.034267
0.0337951
0.0333408
0.0329027
0.0324621
0.0320157
0.0315782
0.0311565
0.0307355
0.0303049
0.0298704
0.0294481
0.0290393
0.0286309
0.0282195
0.0278053
0.0273893
0.0269804
0.0265729
0.0261574
0.025735
0.0253059
0.0248708
0.0244337
0.0239912
0.023537
0.023073
0.0226014
0.0221242
0.040773
0.0405357
0.0402316
0.0398665
0.0394777
0.0390596
0.0386258
0.0381928
0.0377395
0.0372791
0.03683
0.0363771
0.0359068
0.0354519
0.0350107
0.0345654
0.0341125
0.0336664
0.0332339
0.0328001
0.0323551
0.0319045
0.0314643
0.0310368
0.0306084
0.0301761
0.0297405
0.0293022
0.0288701
0.0284391
0.0279995
0.0275521
0.0270976
0.0266363
0.0261719
0.0257009
0.0252193
0.024727
0.0242264
0.0237192
0.0427855
0.0425561
0.042262
0.0419085
0.0415303
0.0411231
0.0406999
0.040277
0.0398307
0.0393767
0.0389325
0.0384829
0.0380151
0.0375602
0.0371169
0.0366677
0.0362091
0.0357553
0.0353127
0.0348672
0.0344088
0.0339434
0.0334866
0.0330416
0.0325942
0.0321418
0.0316856
0.031226
0.0307717
0.0303179
0.029855
0.0293835
0.0289044
0.0284175
0.0279268
0.0274286
0.0269196
0.0263994
0.0258699
0.0253332
0.0447925
0.044571
0.0442869
0.0439457
0.0435771
0.0431802
0.0427671
0.0423532
0.0419151
0.0414685
0.0410299
0.0405844
0.0401197
0.0396656
0.039221
0.0387684
0.0383048
0.0378438
0.0373917
0.0369351
0.0364643
0.0359851
0.035513
0.0350513
0.034586
0.0341143
0.0336372
0.0331582
0.0326827
0.0322062
0.0317219
0.0312274
0.0307242
0.0302126
0.0296962
0.0291717
0.028636
0.0280883
0.0275306
0.0269648
0.0467938
0.0465799
0.0463052
0.0459749
0.0456169
0.0452307
0.0448278
0.0444224
0.0439928
0.0435539
0.0431225
0.0426808
0.0422207
0.0417671
0.0413229
0.0408672
0.040399
0.039931
0.0394698
0.0390023
0.0385199
0.0380278
0.0375413
0.037064
0.036582
0.0360924
0.0355964
0.0350982
0.0346023
0.0341045
0.0335986
0.0330816
0.0325551
0.0320195
0.0314784
0.0309285
0.0303667
0.0297922
0.0292069
0.0286126
0.0487889
0.0485826
0.0483173
0.0479971
0.0476496
0.0472743
0.0468828
0.0464849
0.0460633
0.045632
0.0452067
0.0447697
0.0443137
0.043862
0.0434181
0.0429624
0.0424912
0.0420161
0.0415459
0.0410668
0.040574
0.04007
0.0395699
0.0390777
0.0385802
0.0380742
0.0375606
0.037044
0.0365288
0.0360106
0.0354838
0.0349447
0.0343945
0.0338365
0.0332719
0.0326973
0.0321103
0.0315098
0.0308976
0.0302753
0.0507772
0.0505786
0.0503235
0.0500123
0.0496749
0.0493102
0.0489284
0.0485393
0.0481263
0.047703
0.0472837
0.0468519
0.0463999
0.0459505
0.0455065
0.0450495
0.0445757
0.044097
0.0436194
0.0431295
0.0426258
0.0421104
0.0415972
0.0410899
0.0405792
0.040058
0.0395279
0.0389939
0.0384602
0.0379226
0.0373757
0.0368157
0.0362437
0.0356633
0.0350756
0.0344772
0.0338657
0.0332398
0.0326013
0.0319517
0.0527578
0.0525667
0.0523203
0.0520191
0.0516921
0.0513391
0.0509659
0.0505853
0.0501814
0.0497675
0.0493537
0.0489282
0.0484795
0.0480336
0.0475889
0.0471301
0.0466529
0.0461692
0.0456844
0.0451862
0.0446731
0.0441473
0.0436223
0.0431016
0.0425769
0.0420415
0.0414962
0.0409461
0.0403949
0.0398388
0.0392728
0.0386929
0.0381001
0.0374983
0.0368883
0.0362668
0.0356315
0.0349809
0.0343169
0.0336409
0.0547301
0.0545473
0.0543082
0.0540168
0.0537003
0.0533573
0.0529937
0.0526222
0.0522276
0.0518217
0.0514145
0.0509943
0.0505503
0.0501072
0.0496645
0.0492047
0.0487233
0.0482338
0.0477407
0.0472356
0.0467144
0.0461793
0.0456436
0.0451104
0.0445714
0.0440235
0.0434644
0.0428992
0.0423316
0.041758
0.0411734
0.0405746
0.0399622
0.03934
0.0387087
0.038065
0.0374066
0.0367323
0.0360435
0.0353417
0.0566925
0.0565167
0.0562862
0.0560051
0.0557
0.0553658
0.0550118
0.0546498
0.0542655
0.0538668
0.0534671
0.0530513
0.052613
0.0521716
0.0517293
0.0512683
0.0507854
0.0502911
0.0497903
0.0492777
0.0487489
0.0482054
0.0476599
0.0471157
0.0465645
0.0460041
0.0454317
0.0448524
0.0442693
0.0436787
0.0430756
0.0424597
0.041829
0.0411874
0.0405356
0.0398705
0.0391901
0.0384927
0.0377799
0.0370532
0.0586448
0.0584756
0.0582538
0.057983
0.0576877
0.0573636
0.0570197
0.0566671
0.0562916
0.0559011
0.0555077
0.0550974
0.0546638
0.0542265
0.0537846
0.0533212
0.052835
0.0523349
0.0518293
0.0513108
0.0507753
0.0502243
0.0496702
0.0491159
0.0485539
0.0479819
0.0473972
0.0468045
0.0462069
0.0456007
0.044981
0.0443481
0.0436996
0.0430395
0.0423681
0.0416826
0.0409808
0.0402613
0.0395254
0.0387745
0.0605861
0.0604237
0.060211
0.0599511
0.0596644
0.0593504
0.059017
0.0586747
0.0583071
0.0579254
0.0575375
0.0571336
0.0567034
0.0562681
0.0558263
0.0553629
0.0548738
0.0543684
0.0538576
0.0533337
0.0527923
0.0522349
0.0516731
0.05111
0.0505381
0.0499556
0.0493595
0.0487546
0.0481435
0.0475227
0.0468875
0.0462385
0.0455732
0.0448953
0.0442052
0.0435001
0.0427779
0.042037
0.041279
0.0405048
0.0625157
0.0623599
0.0621567
0.0619054
0.0616285
0.0613254
0.0610034
0.0606692
0.0603101
0.0599361
0.0595548
0.0591566
0.0587319
0.058298
0.0578545
0.0573896
0.0568958
0.056388
0.0558736
0.0553453
0.0547991
0.0542361
0.0536677
0.0530967
0.0525161
0.051924
0.0513176
0.0507014
0.0500778
0.0494435
0.048794
0.0481298
0.0474486
0.0467538
0.046046
0.0453221
0.0445804
0.0438192
0.0430398
0.0422433
0.0644324
0.0642825
0.0640874
0.0638457
0.0635792
0.063288
0.0629753
0.0626505
0.0623013
0.0619342
0.0615601
0.0611672
0.0607458
0.0603119
0.0598677
0.0593986
0.0589034
0.0583937
0.0578765
0.0573449
0.0567947
0.0562272
0.0556531
0.0550752
0.0544869
0.0538863
0.0532705
0.052644
0.052009
0.0513622
0.0506992
0.0500209
0.0493246
0.048614
0.0478893
0.0471478
0.0463875
0.0456069
0.044807
0.0439892
0.0663355
0.0661912
0.0660039
0.0657718
0.0655158
0.0652349
0.0649326
0.0646183
0.0642772
0.0639184
0.063549
0.0631611
0.0627415
0.0623092
0.0618632
0.0613924
0.0608961
0.060385
0.0598658
0.0593316
0.0587784
0.0582072
0.0576284
0.0570447
0.0564496
0.0558415
0.0552174
0.0545815
0.053936
0.0532777
0.0526023
0.0519108
0.0512004
0.050475
0.0497345
0.0489763
0.0481985
0.0473992
0.0465799
0.0457417
0.0682241
0.0680853
0.0679056
0.0676836
0.0674387
0.0671671
0.0668755
0.0665694
0.0662377
0.0658856
0.065522
0.0651362
0.0647194
0.0642868
0.0638402
0.063369
0.0628726
0.0623612
0.0618408
0.0613048
0.0607494
0.0601755
0.059593
0.0590044
0.0584036
0.0577889
0.0571574
0.0565131
0.0558581
0.0551892
0.0545024
0.0537986
0.053075
0.0523358
0.0515807
0.050807
0.0500124
0.0491956
0.0483577
0.0475001
0.0700974
0.0699638
0.0697914
0.0695799
0.069344
0.069083
0.0688002
0.0685038
0.0681799
0.0678366
0.0674766
0.0670926
0.0666762
0.0662442
0.0657982
0.0653279
0.0648324
0.0643214
0.0638007
0.0632638
0.0627071
0.0621313
0.061546
0.0609536
0.0603481
0.0597278
0.0590898
0.058438
0.0577743
0.0570958
0.0563986
0.0556835
0.0549477
0.0541956
0.0534269
0.0526398
0.0518288
0.0509949
0.0501395
0.0492637
0.0719546
0.0718257
0.0716598
0.0714569
0.0712314
0.070979
0.0707063
0.0704179
0.0701035
0.0697643
0.0694086
0.0690259
0.0686115
0.0681815
0.0677372
0.0672686
0.0667749
0.0662652
0.065745
0.0652081
0.0646508
0.0640741
0.0634869
0.0628917
0.0622827
0.0616576
0.0610137
0.0603553
0.0596839
0.0589967
0.05829
0.0575646
0.0568175
0.0560534
0.0552719
0.0544711
0.0536454
0.0527959
0.0519242
0.0510315
0.073795
0.0736705
0.0735103
0.0733147
0.0730975
0.0728552
0.0725907
0.0723122
0.072003
0.0716699
0.0713166
0.0709366
0.0705255
0.0700986
0.0696569
0.0691909
0.0686998
0.0681922
0.0676732
0.067137
0.06658
0.0660031
0.0654149
0.0648179
0.0642075
0.0635775
0.0629284
0.0622641
0.0615859
0.060891
0.0601758
0.059441
0.0586836
0.0579083
0.0571146
0.056301
0.0554616
0.0545978
0.053711
0.0528028
0.0756181
0.0754976
0.0753426
0.0751534
0.0749431
0.0747087
0.0744531
0.0741809
0.0738795
0.0735522
0.0732018
0.0728254
0.0724186
0.0719955
0.0715572
0.0710947
0.0706069
0.070102
0.069585
0.0690501
0.0684941
0.0679176
0.067329
0.0667308
0.0661185
0.0654855
0.0648326
0.0641635
0.0634795
0.062778
0.0620554
0.0613119
0.0605449
0.0597593
0.0589544
0.0581288
0.0572768
0.0563997
0.0554992
0.054577
0.0774233
0.0773066
0.0771564
0.076973
0.0767688
0.0765409
0.0762921
0.0760259
0.0757309
0.0754096
0.0750642
0.0746927
0.0742909
0.0738725
0.0734383
0.0729796
0.0724957
0.0719942
0.0714797
0.0709469
0.0703924
0.0698171
0.0692287
0.0686299
0.0680162
0.0673812
0.0667256
0.0660527
0.0653638
0.0646566
0.0639286
0.0631765
0.0624005
0.0616054
0.0607902
0.0599536
0.05909
0.0582009
0.057288
0.0563535
0.07921
0.079097
0.0789513
0.0787733
0.0785747
0.0783527
0.0781098
0.0778494
0.0775603
0.0772449
0.076905
0.0765389
0.0761427
0.0757294
0.0752998
0.0748456
0.074366
0.0738683
0.0733569
0.0728266
0.0722744
0.0717008
0.0711134
0.0705146
0.0699004
0.0692643
0.0686071
0.067931
0.0672378
0.0665252
0.0657911
0.0650323
0.0642488
0.0634454
0.062621
0.0617745
0.0609005
0.0600005
0.0590766
0.0581315
0.0809775
0.080868
0.0807267
0.0805538
0.0803606
0.0801441
0.0799068
0.0796518
0.0793685
0.0790589
0.0787247
0.0783643
0.077974
0.0775661
0.0771414
0.0766921
0.0762172
0.0757238
0.075216
0.0746888
0.0741393
0.0735681
0.0729824
0.0723844
0.0717703
0.0711342
0.0704772
0.0697979
0.0691007
0.0683832
0.0676425
0.0668785
0.0660891
0.0652786
0.0644458
0.0635907
0.0627075
0.0617979
0.0608644
0.0599106
0.0827251
0.082619
0.082482
0.0823141
0.0821259
0.0819148
0.081683
0.0814333
0.0811556
0.0808518
0.0805234
0.0801688
0.0797846
0.0793824
0.0789628
0.0785186
0.0780489
0.0775601
0.0770563
0.0765326
0.0759864
0.0754183
0.0748349
0.0742385
0.0736252
0.0729894
0.0723321
0.0716513
0.0709514
0.0702303
0.0694849
0.0687151
0.0679209
0.0671045
0.0662646
0.0654017
0.0645103
0.0635922
0.0626506
0.06169
0.0844519
0.0843492
0.0842163
0.0840532
0.0838701
0.0836642
0.0834378
0.0831933
0.0829212
0.0826232
0.0823006
0.0819519
0.0815739
0.0811775
0.0807635
0.0803246
0.0798602
0.0793765
0.078877
0.0783574
0.0778151
0.0772505
0.0766704
0.0760766
0.0754646
0.0748295
0.0741723
0.0734908
0.0727892
0.0720656
0.0713169
0.0705433
0.0697447
0.0689228
0.0680766
0.0672066
0.0663079
0.0653826
0.0644344
0.0634691
0.0861573
0.0860578
0.0859289
0.0857706
0.0855924
0.0853917
0.0851705
0.0849312
0.0846647
0.0843726
0.0840558
0.0837131
0.0833414
0.082951
0.0825426
0.0821094
0.0816506
0.0811722
0.0806775
0.0801624
0.0796244
0.079064
0.0784878
0.0778985
0.0772878
0.0766541
0.0759972
0.0753156
0.0746131
0.0738881
0.0731376
0.0723612
0.07156
0.0707324
0.0698804
0.0690043
0.0680993
0.067168
0.0662147
0.065247
0.0878403
0.0877441
0.0876191
0.0874655
0.087292
0.0870964
0.0868805
0.0866464
0.0863855
0.0860992
0.0857883
0.0854517
0.0850864
0.0847022
0.0842995
0.0838721
0.0834193
0.0829464
0.0824569
0.0819467
0.0814134
0.0808577
0.0802858
0.0797002
0.0790926
0.0784626
0.0778061
0.0771247
0.0764222
0.0756969
0.0749464
0.0741672
0.073363
0.0725314
0.0716747
0.0707935
0.0698834
0.0689473
0.0679906
0.0670228
0.0895002
0.0894071
0.089286
0.0891369
0.0889683
0.0887777
0.0885669
0.088338
0.0880827
0.0878023
0.0874974
0.087167
0.0868082
0.0864302
0.0860335
0.0856122
0.0851654
0.0846985
0.0842144
0.0837095
0.0831815
0.0826311
0.0820639
0.0814823
0.0808781
0.080251
0.0795966
0.0789166
0.0782151
0.0774905
0.0767398
0.0759593
0.0751528
0.0743182
0.0734581
0.0725731
0.071659
0.0707193
0.0697608
0.0687954
0.0911363
0.0910462
0.0909289
0.0907843
0.0906203
0.0904347
0.0902291
0.0900054
0.0897557
0.0894813
0.0891825
0.0888583
0.088506
0.0881344
0.0877438
0.0873286
0.0868882
0.0864275
0.0859493
0.0854501
0.0849279
0.0843833
0.0838217
0.0832444
0.0826439
0.08202
0.0813683
0.0806906
0.0799909
0.0792688
0.0785176
0.0777371
0.0769284
0.0760914
0.0752296
0.0743418
0.0734248
0.0724829
0.0715243
0.0705638
0.0927478
0.0926606
0.092547
0.0924068
0.0922474
0.0920667
0.0918662
0.0916477
0.0914037
0.0911353
0.0908427
0.0905248
0.0901791
0.0898139
0.0894295
0.0890208
0.0885869
0.0881326
0.0876606
0.0871676
0.0866517
0.0861137
0.0855595
0.0849861
0.0843899
0.0837693
0.0831206
0.0824455
0.0817481
0.0810278
0.0802776
0.0794974
0.0786878
0.0778506
0.0769891
0.0760988
0.0751796
0.0742367
0.0732796
0.0723265
0.094334
0.0942497
0.0941396
0.0940037
0.0938488
0.093673
0.0934776
0.0932643
0.0930261
0.0927639
0.0924776
0.092166
0.0918269
0.0914681
0.0910901
0.0906878
0.0902607
0.0898132
0.0893477
0.0888613
0.0883521
0.0878209
0.0872731
0.0867055
0.0861155
0.085498
0.0848525
0.0841806
0.0834858
0.0827678
0.0820193
0.0812403
0.0804312
0.0795943
0.0787328
0.0778417
0.0769219
0.0759793
0.0750253
0.0740822
0.0958942
0.0958128
0.0957062
0.0955745
0.095424
0.095253
0.0950626
0.0948545
0.0946221
0.0943662
0.0940867
0.0937812
0.0934485
0.0930961
0.0927245
0.092329
0.0919089
0.0914684
0.0910098
0.0905304
0.0900285
0.0895048
0.0889635
0.0884015
0.087817
0.087204
0.0865627
0.0858947
0.0852035
0.0844882
0.0837421
0.082965
0.0821574
0.0813214
0.0804604
0.0795696
0.0786503
0.0777094
0.0767602
0.0758295
0.0974279
0.0973492
0.0972461
0.0971184
0.0969723
0.096806
0.0966206
0.0964176
0.0961909
0.0959415
0.09567
0.0953696
0.0950431
0.0946972
0.0943323
0.0939437
0.0935308
0.0930975
0.0926463
0.0921743
0.0916804
0.0911658
0.0906302
0.0900743
0.0894949
0.0888869
0.0882504
0.0875872
0.0869004
0.0861885
0.0854452
0.0846706
0.0838651
0.0830309
0.0821712
0.0812817
0.0803639
0.0794257
0.0784829
0.0775668
0.0989344
0.0988584
0.0987586
0.098635
0.0984932
0.0983315
0.098151
0.097953
0.0977319
0.0974886
0.0972235
0.0969295
0.0966097
0.0962707
0.0959126
0.0955311
0.0951257
0.0947
0.0942563
0.0937923
0.0933068
0.0928
0.0922717
0.0917236
0.0911489
0.0905459
0.0899148
0.089257
0.0885765
0.0878675
0.0871274
0.086356
0.0855534
0.0847218
0.0838642
0.0829767
0.0820615
0.0811272
0.080192
0.0792927
0.100413
0.10034
0.100243
0.100124
0.0999862
0.0998289
0.0996533
0.0994603
0.0992447
0.0990072
0.0987482
0.0984609
0.0981481
0.0978161
0.097465
0.0970908
0.0966931
0.0962752
0.0958394
0.0953837
0.0949081
0.0944082
0.0938872
0.0933456
0.0927767
0.0921797
0.0915549
0.0909028
0.0902275
0.0895231
0.0887872
0.0880198
0.087221
0.0863928
0.0855383
0.0846538
0.083742
0.0828127
0.0818863
0.0810057
0.101864
0.101793
0.1017
0.101584
0.101451
0.101298
0.101127
0.100939
0.100729
0.100497
0.100244
0.0999635
0.0996578
0.0993329
0.098989
0.0986223
0.0982324
0.0978226
0.097395
0.0969477
0.0964805
0.0959889
0.0954768
0.0949408
0.0943779
0.0937874
0.0931707
0.0925238
0.0918536
0.0911544
0.0904236
0.089661
0.0888668
0.0880427
0.0871923
0.0863119
0.0854045
0.084481
0.0835645
0.0827041
0.103287
0.103218
0.103128
0.103016
0.102886
0.102738
0.102572
0.102389
0.102184
0.101958
0.101711
0.101437
0.101139
0.100821
0.100484
0.100125
0.0997433
0.0993418
0.0989227
0.0984842
0.0980252
0.0975419
0.0970372
0.0965077
0.0959512
0.0953675
0.0947579
0.094118
0.093454
0.0927606
0.0920355
0.0912786
0.0904899
0.089671
0.0888256
0.0879501
0.087048
0.0861311
0.0852255
0.0843865
0.10468
0.104614
0.104527
0.104419
0.104293
0.104149
0.103987
0.103809
0.10361
0.10339
0.103149
0.102881
0.10259
0.10228
0.10195
0.101599
0.101225
0.100832
0.100422
0.0999938
0.0995421
0.0990677
0.098569
0.0980459
0.0974961
0.0969194
0.0963171
0.0956858
0.0950278
0.0943407
0.0936221
0.0928717
0.0920895
0.0912769
0.0904374
0.0895677
0.0886716
0.0877622
0.086868
0.0860514
0.106045
0.105981
0.105897
0.105792
0.10567
0.105531
0.105374
0.1052
0.105006
0.104792
0.104557
0.104296
0.104012
0.103709
0.103387
0.103043
0.102678
0.102294
0.101893
0.101473
0.101029
0.100562
0.100071
0.0995546
0.099012
0.0984425
0.0978472
0.0972238
0.0965734
0.0958938
0.0951827
0.0944396
0.0936644
0.0928597
0.092027
0.0911638
0.0902745
0.0893731
0.088491
0.0876976
0.10738
0.107318
0.107237
0.107136
0.107018
0.106882
0.10673
0.106561
0.106372
0.106164
0.105935
0.105682
0.105405
0.105109
0.104794
0.104458
0.104101
0.103727
0.103335
0.102922
0.102487
0.102027
0.101542
0.101033
0.100498
0.0999364
0.0993476
0.0987329
0.0980907
0.0974194
0.0967166
0.0959819
0.0952151
0.0944201
0.0935942
0.0927379
0.0918559
0.0909632
0.0900935
0.0893236
0.108685
0.108626
0.108548
0.10845
0.108336
0.108204
0.108056
0.107892
0.107708
0.107506
0.107284
0.107037
0.106767
0.106478
0.106171
0.105843
0.105495
0.10513
0.104745
0.104339
0.103912
0.103459
0.102983
0.102482
0.101955
0.101402
0.100821
0.100214
0.0995804
0.0989176
0.0982236
0.0974978
0.0967403
0.0959544
0.095137
0.0942887
0.093415
0.0925314
0.0916746
0.0909284
0.109961
0.109904
0.109829
0.109734
0.109624
0.109496
0.109352
0.109193
0.109014
0.108817
0.108602
0.108364
0.108099
0.107817
0.107517
0.107197
0.106857
0.106501
0.106123
0.105725
0.105305
0.10486
0.104392
0.1039
0.103383
0.102838
0.102265
0.101666
0.101042
0.100389
0.0997039
0.0989876
0.0982397
0.0974634
0.0966552
0.0958159
0.0949511
0.0940772
0.0932335
0.0925108
0.111208
0.111153
0.11108
0.110988
0.110881
0.110758
0.110618
0.110463
0.11029
0.110099
0.109889
0.109658
0.109401
0.109125
0.108832
0.10852
0.10819
0.10784
0.10747
0.107079
0.106665
0.10623
0.105771
0.105289
0.10478
0.104245
0.103682
0.103092
0.102476
0.101832
0.101157
0.100451
0.0997135
0.0989474
0.098149
0.0973192
0.0964639
0.0956001
0.0947694
0.09407
0.112424
0.112371
0.112301
0.112213
0.112109
0.111989
0.111854
0.111704
0.111535
0.111349
0.111146
0.110921
0.110671
0.110402
0.110117
0.109812
0.10949
0.109148
0.108786
0.108402
0.107997
0.10757
0.107121
0.106647
0.106148
0.105623
0.10507
0.104489
0.103883
0.103248
0.102583
0.101888
0.101162
0.100407
0.0996184
0.0987985
0.0979529
0.0970995
0.0962818
0.0956051
0.113611
0.11356
0.113492
0.113407
0.113307
0.113191
0.11306
0.112914
0.11275
0.11257
0.112372
0.112154
0.11191
0.111649
0.111371
0.111074
0.110759
0.110424
0.11007
0.109695
0.109298
0.108881
0.10844
0.107976
0.107487
0.106971
0.106428
0.105859
0.105262
0.104638
0.103984
0.1033
0.102587
0.101841
0.101063
0.100253
0.0994179
0.098575
0.0977702
0.0971154
0.114768
0.114719
0.114654
0.114572
0.114475
0.114363
0.114236
0.114094
0.113935
0.11376
0.113568
0.113356
0.11312
0.112866
0.112595
0.112304
0.111995
0.11167
0.111325
0.110958
0.11057
0.11016
0.109729
0.109275
0.108796
0.10829
0.107758
0.107199
0.106613
0.106
0.105357
0.104684
0.103983
0.103249
0.102482
0.101683
0.100858
0.100026
0.099234
0.0986004
0.115896
0.115849
0.115786
0.115707
0.115613
0.115505
0.115381
0.115244
0.11509
0.11492
0.114734
0.114529
0.1143
0.114053
0.113789
0.113505
0.113204
0.112886
0.112549
0.112191
0.111811
0.111409
0.110988
0.110544
0.110075
0.10958
0.109059
0.108511
0.107936
0.107334
0.106703
0.106042
0.105352
0.10463
0.103874
0.103087
0.102273
0.101452
0.100673
0.100059
0.116995
0.116949
0.116888
0.116812
0.116722
0.116617
0.116498
0.116364
0.116215
0.11605
0.11587
0.115671
0.115451
0.11521
0.114952
0.114676
0.114382
0.114072
0.113743
0.113393
0.113022
0.11263
0.112218
0.111784
0.111325
0.110841
0.11033
0.109793
0.10923
0.10864
0.10802
0.107372
0.106695
0.105984
0.105241
0.104465
0.103663
0.102853
0.102086
0.101492
0.118064
0.11802
0.117962
0.117888
0.117801
0.117699
0.117584
0.117455
0.11731
0.11715
0.116975
0.116783
0.11657
0.116337
0.116086
0.115817
0.11553
0.115228
0.114907
0.114566
0.114204
0.113821
0.113418
0.112993
0.112545
0.112072
0.111572
0.111047
0.110496
0.109917
0.10931
0.108676
0.10801
0.107311
0.10658
0.105816
0.105026
0.104228
0.103473
0.102897
0.119104
0.119063
0.119006
0.118935
0.118851
0.118753
0.118641
0.118516
0.118376
0.118221
0.118052
0.117865
0.117659
0.117433
0.11719
0.116929
0.116649
0.116353
0.116041
0.115709
0.115356
0.114982
0.114588
0.114174
0.113736
0.113273
0.112785
0.112272
0.111732
0.111165
0.110571
0.10995
0.109297
0.108611
0.107892
0.107141
0.106363
0.105577
0.104833
0.104275
0.120116
0.120076
0.120022
0.119954
0.119872
0.119778
0.11967
0.119549
0.119413
0.119263
0.119098
0.118918
0.118719
0.118501
0.118265
0.118011
0.117739
0.11745
0.117146
0.116823
0.116479
0.116114
0.11573
0.115325
0.114898
0.114446
0.113969
0.113467
0.112939
0.112385
0.111803
0.111195
0.110555
0.109882
0.109177
0.108439
0.107673
0.106899
0.106167
0.105625
0.1211
0.121061
0.121009
0.120944
0.120865
0.120774
0.12067
0.120553
0.120421
0.120276
0.120116
0.119942
0.11975
0.11954
0.11931
0.119063
0.118799
0.118518
0.118222
0.117907
0.117573
0.117218
0.116842
0.116447
0.11603
0.115589
0.115124
0.114634
0.114118
0.113576
0.113007
0.112411
0.111785
0.111126
0.110434
0.109709
0.108957
0.108195
0.107475
0.106947
0.122056
0.122019
0.121969
0.121906
0.12183
0.121742
0.121641
0.121528
0.121401
0.12126
0.121106
0.120937
0.120751
0.120549
0.120326
0.120087
0.11983
0.119557
0.119268
0.118963
0.118638
0.118292
0.117927
0.117541
0.117133
0.116704
0.11625
0.115771
0.115268
0.114738
0.114183
0.113601
0.112987
0.112342
0.111663
0.110952
0.110213
0.109463
0.108755
0.108241
0.122984
0.122949
0.122901
0.12284
0.122767
0.122682
0.122585
0.122475
0.122353
0.122217
0.122067
0.121904
0.121724
0.121529
0.121314
0.121082
0.120834
0.120569
0.120288
0.119991
0.119674
0.119338
0.118983
0.118607
0.11821
0.11779
0.117348
0.116881
0.116389
0.115873
0.115332
0.114763
0.114162
0.11353
0.112865
0.112168
0.111442
0.110705
0.110007
0.109506
0.123886
0.123852
0.123805
0.123747
0.123677
0.123595
0.123501
0.123396
0.123277
0.123145
0.123001
0.122843
0.122669
0.122481
0.122274
0.12205
0.121809
0.121552
0.121279
0.12099
0.120683
0.120356
0.12001
0.119645
0.119258
0.118849
0.118417
0.117962
0.117483
0.11698
0.116452
0.115896
0.115309
0.114691
0.11404
0.113356
0.112644
0.111919
0.111232
0.110742
0.12476
0.124728
0.124683
0.124627
0.12456
0.124481
0.124391
0.124289
0.124174
0.124047
0.123907
0.123754
0.123587
0.123405
0.123207
0.12299
0.122757
0.122507
0.122242
0.121961
0.121663
0.121346
0.12101
0.120654
0.120278
0.11988
0.11946
0.119016
0.118549
0.118059
0.117545
0.117002
0.116428
0.115823
0.115186
0.114516
0.113817
0.113105
0.112429
0.111949
0.125609
0.125577
0.125535
0.125481
0.125417
0.125341
0.125253
0.125155
0.125045
0.124922
0.124787
0.124639
0.124478
0.124302
0.124112
0.123903
0.123677
0.123436
0.123179
0.122905
0.122616