/*--------------------------------*- C++ -*----------------------------------*\
| =========                 |                                                 |
| \\      /  F ield         | OpenFOAM: The Open Source CFD Toolbox           |
|  \\    /   O peration     | Version:  3.0.1                                 |
|   \\  /    A nd           | Web:      www.OpenFOAM.org                      |
|    \\/     M anipulation  |                                                 |
\*---------------------------------------------------------------------------*/
FoamFile
{
    version     2.0;
    format      ascii;
    class       volScalarField;
    location    "500";
    object      p;
}
// * * * * * * * * * * * * * * * * * * * * * * * * * * * * * * * * * * * * * //

dimensions      [0 2 -2 0 0 0 0];

internalField   nonuniform List<scalar> 
58000
(
-0.0575938
-0.32824
-0.510776
-0.617753
-0.680103
-0.719393
-0.745208
-0.75727
-0.761845
-0.760354
-0.752658
-0.74099
-0.72703
-0.71083
-0.693361
-0.675954
-0.659329
-0.643581
-0.628677
-0.614698
-0.601505
-0.588954
-0.576978
-0.565551
-0.554694
-0.544302
-0.534172
-0.524285
-0.51465
-0.505287
-0.496143
-0.486968
-0.477804
-0.468952
-0.460711
-0.451643
-0.442246
-0.433629
-0.426814
-0.421005
0.263725
0.145453
0.0255317
-0.0993202
-0.20699
-0.301942
-0.380718
-0.447481
-0.505468
-0.549771
-0.581941
-0.605324
-0.620381
-0.627076
-0.628759
-0.625963
-0.619552
-0.610799
-0.601066
-0.590761
-0.579929
-0.568911
-0.558082
-0.547753
-0.537618
-0.52757
-0.517662
-0.507998
-0.498768
-0.489966
-0.481343
-0.473006
-0.464907
-0.456943
-0.449042
-0.440633
-0.431893
-0.423606
-0.416461
-0.410725
0.174389
0.0869982
0.00438018
-0.0773795
-0.15652
-0.227525
-0.294462
-0.351395
-0.401913
-0.445741
-0.480082
-0.507128
-0.528541
-0.543103
-0.551757
-0.556408
-0.557699
-0.555947
-0.55205
-0.546765
-0.540401
-0.53324
-0.52562
-0.517939
-0.51011
-0.502112
-0.494018
-0.485942
-0.478087
-0.470427
-0.462755
-0.455103
-0.447463
-0.439879
-0.432484
-0.425128
-0.417734
-0.410545
-0.403814
-0.397529
0.185769
0.132653
0.077202
0.0161504
-0.0474636
-0.110126
-0.171627
-0.227706
-0.280444
-0.328244
-0.368434
-0.40283
-0.432631
-0.45587
-0.4727
-0.485394
-0.494439
-0.499717
-0.501726
-0.501479
-0.499571
-0.496275
-0.49189
-0.486773
-0.481112
-0.475022
-0.468588
-0.461941
-0.455289
-0.44865
-0.441925
-0.435152
-0.428342
-0.421561
-0.414922
-0.408342
-0.401719
-0.395146
-0.388747
-0.382549
0.156677
0.117641
0.0786883
0.036042
-0.0108325
-0.0584841
-0.108465
-0.156041
-0.202544
-0.247087
-0.286346
-0.321359
-0.353253
-0.380014
-0.400864
-0.418077
-0.432009
-0.442234
-0.448867
-0.452932
-0.455089
-0.455538
-0.454445
-0.452137
-0.448974
-0.445138
-0.44072
-0.435848
-0.430717
-0.425392
-0.419855
-0.414146
-0.408286
-0.402354
-0.396469
-0.390608
-0.384692
-0.378761
-0.372871
-0.367038
0.141556
0.111668
0.0821412
0.0499255
0.0139913
-0.0230719
-0.0633398
-0.103022
-0.142984
-0.182782
-0.21931
-0.253114
-0.285044
-0.313221
-0.336333
-0.356448
-0.373752
-0.38764
-0.397909
-0.405508
-0.411111
-0.414841
-0.416751
-0.417073
-0.416283
-0.414617
-0.412169
-0.409059
-0.405455
-0.401464
-0.397143
-0.392542
-0.387693
-0.382676
-0.377607
-0.372494
-0.367279
-0.361982
-0.356631
-0.351245
0.125396
0.101343
0.0780639
0.053003
0.0248511
-0.00417665
-0.0364833
-0.0689975
-0.102375
-0.13668
-0.169168
-0.200066
-0.23008
-0.257679
-0.281164
-0.302376
-0.321362
-0.337436
-0.350146
-0.360309
-0.368562
-0.374941
-0.379393
-0.382042
-0.383424
-0.383797
-0.383241
-0.381854
-0.379776
-0.377142
-0.37407
-0.370614
-0.366811
-0.362742
-0.358516
-0.354166
-0.34966
-0.345008
-0.340233
-0.335356
0.112137
0.0921403
0.0730323
0.0527116
0.0299119
0.00654582
-0.0197655
-0.0465621
-0.0743694
-0.10359
-0.131924
-0.159435
-0.18672
-0.212648
-0.235349
-0.256434
-0.275858
-0.292941
-0.307061
-0.31888
-0.328978
-0.337309
-0.343747
-0.348301
-0.35152
-0.353662
-0.354785
-0.354966
-0.35431
-0.352961
-0.351087
-0.348742
-0.345963
-0.34283
-0.339443
-0.335856
-0.332056
-0.328053
-0.323867
-0.319523
0.100507
0.083488
0.0673835
0.050439
0.0314842
0.0122144
-0.00959842
-0.031936
-0.0552322
-0.0800786
-0.104587
-0.128744
-0.153072
-0.176805
-0.198049
-0.218216
-0.237209
-0.254413
-0.269108
-0.281805
-0.29302
-0.302643
-0.31051
-0.316517
-0.321194
-0.324787
-0.327328
-0.328868
-0.329479
-0.3293
-0.328531
-0.327222
-0.325411
-0.323171
-0.320593
-0.317746
-0.314635
-0.311269
-0.307668
-0.303861
0.0904446
0.0756932
0.0618252
0.0473617
0.0312485
0.0149986
-0.00341921
-0.022314
-0.0420461
-0.0632863
-0.0844873
-0.105605
-0.127104
-0.14851
-0.168013
-0.186844
-0.204886
-0.221613
-0.236271
-0.249245
-0.260987
-0.271346
-0.280136
-0.287164
-0.292923
-0.297636
-0.30131
-0.303971
-0.305658
-0.306496
-0.306704
-0.306326
-0.305396
-0.30398
-0.302157
-0.300008
-0.297551
-0.294793
-0.291758
-0.288474
0.0816614
0.0686953
0.0565562
0.0439855
0.0300405
0.0160783
0.000268628
-0.0159469
-0.0328682
-0.0511775
-0.0695977
-0.0880789
-0.107031
-0.126198
-0.143907
-0.161234
-0.17806
-0.19395
-0.208166
-0.220991
-0.232821
-0.243475
-0.252769
-0.260444
-0.266944
-0.272466
-0.276995
-0.280536
-0.283099
-0.284787
-0.285827
-0.286257
-0.286105
-0.285427
-0.28429
-0.28278
-0.280929
-0.27874
-0.276239
-0.273451
0.0739639
0.0624388
0.0516739
0.0405892
0.0283442
0.0161584
0.00239177
-0.0117094
-0.0263968
-0.0423289
-0.05844
-0.0746809
-0.0914127
-0.108533
-0.124527
-0.14034
-0.155855
-0.170726
-0.184256
-0.196651
-0.208259
-0.218885
-0.228358
-0.236372
-0.243324
-0.249384
-0.254518
-0.258713
-0.261958
-0.264329
-0.266056
-0.267165
-0.267677
-0.267641
-0.267111
-0.266174
-0.264869
-0.263201
-0.261192
-0.258866
0.0671842
0.0568467
0.0472004
0.0373122
0.0264326
0.0156592
0.00352497
-0.00888125
-0.0217724
-0.0357655
-0.0499619
-0.0643158
-0.079144
-0.0944456
-0.108866
-0.123236
-0.137449
-0.151235
-0.163953
-0.175751
-0.186934
-0.197308
-0.206718
-0.214833
-0.222004
-0.228378
-0.233904
-0.238557
-0.242306
-0.245207
-0.247478
-0.249138
-0.250202
-0.25071
-0.250703
-0.250268
-0.249447
-0.248244
-0.246681
-0.244776
0.0611864
0.0518448
0.0431269
0.0342225
0.0244624
0.0148356
0.00403005
-0.00699579
-0.0184236
-0.0308211
-0.0434223
-0.056186
-0.0693912
-0.0831008
-0.0961089
-0.109149
-0.122127
-0.134836
-0.146694
-0.15781
-0.168448
-0.178423
-0.1876
-0.195642
-0.202854
-0.209363
-0.215107
-0.220051
-0.224151
-0.22744
-0.230126
-0.232219
-0.233728
-0.234685
-0.235119
-0.235113
-0.234712
-0.233919
-0.232751
-0.231225
0.055859
0.0473645
0.0394301
0.0313491
0.0225232
0.0138445
0.00413884
-0.0057454
-0.0159644
-0.0270354
-0.0382989
-0.0497184
-0.0615392
-0.073863
-0.0856201
-0.0974591
-0.109298
-0.120977
-0.131975
-0.142375
-0.152408
-0.161898
-0.170733
-0.178581
-0.185703
-0.192208
-0.198031
-0.20313
-0.20745
-0.211006
-0.213994
-0.216414
-0.21827
-0.219587
-0.220384
-0.220738
-0.220694
-0.220253
-0.219432
-0.218239
0.0511096
0.0433442
0.0360804
0.028699
0.0206649
0.012783
0.0040015
-0.00492512
-0.0141322
-0.0240882
-0.0342206
-0.0444974
-0.0551339
-0.0662535
-0.0769088
-0.0876743
-0.0984762
-0.109194
-0.119365
-0.12905
-0.138458
-0.147421
-0.155848
-0.163417
-0.170356
-0.176757
-0.182553
-0.187697
-0.192131
-0.195853
-0.199045
-0.2017
-0.203817
-0.205414
-0.206502
-0.20715
-0.207405
-0.207263
-0.206739
-0.205835
0.0468598
0.039729
0.0330464
0.0262677
0.0189135
0.0117107
0.00371632
-0.00439654
-0.0127461
-0.0217547
-0.0309223
-0.0402208
-0.0498392
-0.0599113
-0.0695971
-0.0794066
-0.0892739
-0.0991085
-0.1085
-0.117497
-0.126282
-0.134705
-0.142688
-0.149926
-0.15662
-0.162845
-0.168534
-0.173642
-0.178105
-0.18191
-0.185224
-0.188036
-0.190339
-0.192146
-0.19346
-0.194344
-0.194841
-0.194948
-0.194676
-0.19402
0.043045
0.0364717
0.0302979
0.0240443
0.0172808
0.0106641
0.00334811
-0.00406514
-0.0116795
-0.019875
-0.0282124
-0.0366669
-0.0454049
-0.0545626
-0.0633946
-0.0723544
-0.0813832
-0.0904133
-0.0990821
-0.107426
-0.115611
-0.123497
-0.131022
-0.137901
-0.144308
-0.150308
-0.155836
-0.160845
-0.165272
-0.169095
-0.172465
-0.175368
-0.177795
-0.17975
-0.181234
-0.1823
-0.182991
-0.1833
-0.183237
-0.182791
0.0396109
0.0335311
0.0278068
0.0220153
0.0157703
0.00966524
0.00293998
-0.00386559
-0.0108432
-0.0183343
-0.0259512
-0.0336722
-0.0416439
-0.05
-0.0580783
-0.0662825
-0.0745602
-0.082861
-0.0908639
-0.0985983
-0.106211
-0.113578
-0.120647
-0.127154
-0.133251
-0.138996
-0.144324
-0.149189
-0.153532
-0.157321
-0.160695
-0.163636
-0.166133
-0.168186
-0.16979
-0.170993
-0.171833
-0.172303
-0.172411
-0.17214
0.0365118
0.0308719
0.0255481
0.0201665
0.0143804
0.00872615
0.00252024
-0.00375261
-0.0101736
-0.0170492
-0.0240358
-0.0311147
-0.038415
-0.0460651
-0.0534758
-0.0610071
-0.0686118
-0.0762528
-0.0836459
-0.0908147
-0.097891
-0.104761
-0.111386
-0.11752
-0.123299
-0.12877
-0.133873
-0.138564
-0.142785
-0.146502
-0.149838
-0.152775
-0.155298
-0.157406
-0.159089
-0.160389
-0.161341
-0.161937
-0.162182
-0.162052
0.0337086
0.0284633
0.0234987
0.0184836
0.0131065
0.00785256
0.00210681
-0.0036949
-0.00962495
-0.0159584
-0.0223898
-0.0289027
-0.0356111
-0.0426364
-0.0494533
-0.0563836
-0.0633847
-0.0704292
-0.0772652
-0.0839122
-0.0904877
-0.0968901
-0.103087
-0.108856
-0.114315
-0.119505
-0.124368
-0.128865
-0.132939
-0.136554
-0.139821
-0.14272
-0.145235
-0.147363
-0.14909
-0.150454
-0.151485
-0.152175
-0.152527
-0.152512
0.0311677
0.0262781
0.0216377
0.0169526
0.0119428
0.00704702
0.00171174
-0.00367043
-0.00916425
-0.0150168
-0.0209557
-0.0269666
-0.0331501
-0.0396195
-0.0459063
-0.0522982
-0.0587566
-0.0652614
-0.0715892
-0.0777558
-0.0838667
-0.0898303
-0.0956216
-0.101037
-0.10618
-0.111088
-0.115706
-0.119996
-0.123906
-0.127399
-0.130573
-0.133409
-0.135889
-0.138008
-0.139751
-0.14115
-0.142233
-0.14299
-0.143422
-0.143498
0.0288601
0.0242931
0.0199467
0.0155605
0.0108824
0.00630936
0.00134263
-0.00366374
-0.0087677
-0.014191
-0.0196903
-0.0252531
-0.0309684
-0.0369411
-0.0427523
-0.04866
-0.0546293
-0.0606453
-0.0665093
-0.0722346
-0.0779156
-0.0834699
-0.0888782
-0.0939551
-0.0987922
-0.103422
-0.107793
-0.111871
-0.115607
-0.118963
-0.122028
-0.124781
-0.127205
-0.129293
-0.131029
-0.13244
-0.133552
-0.134353
-0.134844
-0.134988
0.026761
0.0224875
0.0184092
0.0142949
0.00991792
0.0056372
0.00100346
-0.00366399
-0.00841726
-0.0134553
-0.01856
-0.0237207
-0.0290162
-0.034543
-0.0399263
-0.045397
-0.0509237
-0.0564959
-0.0619367
-0.0672568
-0.0725407
-0.0777146
-0.0827634
-0.0875186
-0.0920615
-0.0964203
-0.100549
-0.104414
-0.10797
-0.11118
-0.114123
-0.11678
-0.119132
-0.121172
-0.122882
-0.124288
-0.125409
-0.126235
-0.126766
-0.126961
0.0248482
0.0208429
0.0170103
0.0131446
0.00904224
0.00502769
0.000696257
-0.0036639
-0.00809985
-0.0127901
-0.0175389
-0.022337
-0.0272544
-0.0323793
-0.037376
-0.0424515
-0.0475769
-0.052745
-0.0577984
-0.0627462
-0.0676639
-0.0724847
-0.0771972
-0.0816487
-0.0859111
-0.0900091
-0.0939004
-0.0975543
-0.10093
-0.103989
-0.106803
-0.109353
-0.111622
-0.1136
-0.115271
-0.116655
-0.117771
-0.118607
-0.119161
-0.119392
0.0231029
0.0193435
0.0157366
0.0120995
0.00824853
0.00447754
0.000421741
-0.00365877
-0.00780638
-0.0121812
-0.0166075
-0.0210771
-0.0256522
-0.0304131
-0.035059
-0.0397757
-0.0445366
-0.0493366
-0.054035
-0.0586401
-0.0632197
-0.0677132
-0.072112
-0.0762778
-0.0802742
-0.0841227
-0.0877848
-0.0912324
-0.0944275
-0.0973338
-0.100015
-0.102453
-0.10463
-0.106538
-0.108158
-0.109509
-0.110606
-0.111439
-0.112004
-0.112258
0.0215082
0.0179752
0.0145766
0.01115
0.00753009
0.00398287
0.000179473
-0.00364535
-0.00752982
-0.0116174
-0.0157501
-0.0199209
-0.0241849
-0.0286152
-0.0329416
-0.0373312
-0.0417597
-0.0462236
-0.0505968
-0.0548866
-0.0591539
-0.0633441
-0.0674504
-0.0713479
-0.0750929
-0.0787042
-0.0821465
-0.0853942
-0.0884123
-0.0911664
-0.0937134
-0.0960351
-0.0981152
-0.099945
-0.101507
-0.102816
-0.103885
-0.104705
-0.10527
-0.105537
0.0200493
0.0167252
0.0135194
0.0102874
0.00688078
0.00353992
-3.1677e-05
-0.00362185
-0.0072651
-0.0110901
-0.0149545
-0.0188524
-0.0228327
-0.0269616
-0.0309963
-0.035087
-0.0392115
-0.0433674
-0.0474419
-0.0514415
-0.0554204
-0.0593294
-0.0631634
-0.0668093
-0.0703175
-0.0737041
-0.0769366
-0.0799919
-0.0828378
-0.0854418
-0.0878548
-0.0900592
-0.0920395
-0.0937869
-0.0952844
-0.0965441
-0.0975783
-0.0983766
-0.098934
-0.0992048
0.0187132
0.0155824
0.0125555
0.00950404
0.00629465
0.00314475
-0.000213141
-0.00358727
-0.00700864
-0.0105926
-0.0142112
-0.017859
-0.0215796
-0.0254326
-0.0292002
-0.0330171
-0.0368631
-0.0407363
-0.044536
-0.0482678
-0.0519801
-0.0556286
-0.0592091
-0.0626197
-0.065905
-0.0690791
-0.0721123
-0.0749833
-0.0776629
-0.0801204
-0.0824012
-0.0844888
-0.0863681
-0.0880305
-0.0894596
-0.0906656
-0.0916589
-0.0924296
-0.0929722
-0.0932402
0.0174883
0.0145367
0.0116761
0.00879268
0.00576634
0.00279356
-0.000366758
-0.00354123
-0.00675782
-0.01012
-0.0135123
-0.0169302
-0.0204125
-0.0240127
-0.0275346
-0.0310999
-0.0346898
-0.0383032
-0.0418498
-0.0453342
-0.0488
-0.0522068
-0.0555516
-0.058742
-0.061818
-0.0647918
-0.0676361
-0.0703314
-0.0728512
-0.0751666
-0.0773184
-0.0792907
-0.0810691
-0.0826453
-0.0840038
-0.0851526
-0.0861012
-0.0868395
-0.0873621
-0.0876221
0.0163642
0.0135791
0.0108737
0.00814697
0.00529084
0.00248279
-0.000494336
-0.00348374
-0.00651087
-0.0096684
-0.012852
-0.016058
-0.0193206
-0.0226881
-0.0259841
-0.0293176
-0.0326717
-0.0360457
-0.0393586
-0.0426144
-0.0458518
-0.0490344
-0.0521597
-0.0551444
-0.058024
-0.0608092
-0.0634749
-0.0660033
-0.0683702
-0.0705488
-0.0725752
-0.0744347
-0.0761135
-0.0776036
-0.0788902
-0.0799801
-0.080881
-0.0815837
-0.0820824
-0.0823301
0.0153318
0.0127018
0.0101415
0.00756108
0.00486349
0.00220909
-0.000597708
-0.00341524
-0.00626659
-0.00923473
-0.0122255
-0.0152354
-0.0182952
-0.021448
-0.0245351
-0.0276548
-0.0307915
-0.0339448
-0.0370417
-0.0400856
-0.0431113
-0.0460857
-0.0490068
-0.0517993
-0.0544947
-0.0571025
-0.0595996
-0.0619699
-0.0641911
-0.0662383
-0.0681438
-0.0698936
-0.0714748
-0.0728798
-0.0740945
-0.0751243
-0.0759761
-0.0766408
-0.0771127
-0.0773449
0.0143829
0.0118975
0.009473
0.00702962
0.00448004
0.00196924
-0.000678905
-0.00333647
-0.00602427
-0.00881667
-0.0116285
-0.0144568
-0.0173287
-0.020283
-0.023177
-0.0260991
-0.0290349
-0.0319841
-0.034881
-0.0377285
-0.0405577
-0.0433386
-0.0460695
-0.0486824
-0.0512053
-0.0536464
-0.0559847
-0.0582053
-0.060288
-0.0622096
-0.0639989
-0.0656428
-0.0671292
-0.0684506
-0.069594
-0.0705637
-0.0713655
-0.0719908
-0.0724338
-0.0726481
0.0135101
0.0111599
0.00886263
0.00654769
0.00413661
0.00176031
-0.000739815
-0.00324808
-0.0057834
-0.00841235
-0.011058
-0.0137176
-0.0164152
-0.0191857
-0.0219007
-0.0246397
-0.0273896
-0.0301498
-0.0328613
-0.0355264
-0.0381731
-0.040774
-0.0433277
-0.0457727
-0.048134
-0.0504186
-0.0526074
-0.0546867
-0.0566379
-0.0584398
-0.0601179
-0.0616599
-0.0630545
-0.0642946
-0.065368
-0.066278
-0.0670297
-0.0676148
-0.0680276
-0.0682223
0.0127067
0.010483
0.00830523
0.00611094
0.00382969
0.00157957
-0.000782124
-0.00315088
-0.00554382
-0.00802045
-0.0105112
-0.0130137
-0.0155495
-0.0181495
-0.0206983
-0.0232675
-0.0258449
-0.0284299
-0.0309692
-0.0334649
-0.0359418
-0.0383751
-0.0407636
-0.0430516
-0.0452616
-0.0473994
-0.0494476
-0.0513935
-0.0532203
-0.0549083
-0.0564802
-0.0579247
-0.0592309
-0.0603923
-0.0613974
-0.0622487
-0.0629506
-0.0634952
-0.0638772
-0.064051
0.0119667
0.00986163
0.00779623
0.00571545
0.00355606
0.00142452
-0.000807534
-0.00304569
-0.0053054
-0.00763983
-0.00998611
-0.0123422
-0.0147273
-0.017169
-0.0195634
-0.0219747
-0.0243919
-0.0268141
-0.0291933
-0.0315313
-0.0338501
-0.0361274
-0.0383618
-0.0405031
-0.0425712
-0.0445713
-0.0464873
-0.0483075
-0.0500167
-0.0515966
-0.0530675
-0.0544187
-0.0556402
-0.0567257
-0.0576645
-0.0584585
-0.0591113
-0.0596158
-0.0599665
-0.0601187
0.0112847
0.00929102
0.0073315
0.00535761
0.00331271
0.00129276
-0.000817704
-0.00293336
-0.00506815
-0.00726964
-0.00948101
-0.0117005
-0.0139453
-0.0162397
-0.0184901
-0.0207546
-0.0230226
-0.0252934
-0.0275236
-0.0297146
-0.0318862
-0.0340179
-0.0361085
-0.0381126
-0.0400478
-0.0419187
-0.0437104
-0.0454123
-0.0470104
-0.048488
-0.0498629
-0.0511253
-0.0522657
-0.0532784
-0.0541532
-0.0548914
-0.0554963
-0.0559612
-0.0562807
-0.0564109
0.0106557
0.00876685
0.00690722
0.00503416
0.00309694
0.00118209
-0.000814185
-0.0028148
-0.00483238
-0.00690945
-0.00899467
-0.0110865
-0.0132003
-0.0153574
-0.0174737
-0.0196011
-0.0217303
-0.02386
-0.0259512
-0.0280052
-0.0300394
-0.0320353
-0.0339917
-0.0358673
-0.0376781
-0.0394277
-0.0411027
-0.0426933
-0.0441867
-0.0455673
-0.0468512
-0.0480292
-0.0490923
-0.0500352
-0.0508484
-0.0515329
-0.0520912
-0.0525173
-0.0528059
-0.052914
0.0100754
0.00828513
0.00651986
0.00474203
0.00290626
0.00109051
-0.000798415
-0.00269094
-0.00459849
-0.00655898
-0.00852609
-0.0104985
-0.0124897
-0.0145187
-0.0165097
-0.0185093
-0.0205088
-0.022507
-0.0244686
-0.0263946
-0.0283006
-0.0301696
-0.0320005
-0.033756
-0.0354501
-0.037086
-0.0386515
-0.0401374
-0.041532
-0.0428211
-0.0440188
-0.0451165
-0.0461061
-0.0469823
-0.0477365
-0.0483692
-0.0488826
-0.049271
-0.0495292
-0.0496152
0.00953947
0.00784224
0.00616618
0.0044784
0.0027383
0.00101611
-0.000771809
-0.00256268
-0.00436681
-0.006218
-0.00807441
-0.00993491
-0.0118114
-0.0137206
-0.0155944
-0.0174744
-0.0193528
-0.0212282
-0.0230687
-0.0248751
-0.0266613
-0.0284118
-0.0301254
-0.0317683
-0.0333532
-0.0348825
-0.0363451
-0.0377326
-0.0390342
-0.0402369
-0.041353
-0.0423747
-0.0432944
-0.0441072
-0.044805
-0.045388
-0.0458581
-0.0462099
-0.0464385
-0.0465026
0.00904437
0.00743488
0.00584323
0.00424066
0.00259087
0.000957082
-0.000735703
-0.00243086
-0.00413768
-0.00588626
-0.00763879
-0.00939426
-0.0111632
-0.0129604
-0.0147243
-0.0164925
-0.0182577
-0.0200183
-0.0217456
-0.0234401
-0.0251143
-0.0267539
-0.0283577
-0.0298954
-0.0313777
-0.0328071
-0.0341731
-0.0354681
-0.0366821
-0.0378033
-0.0388424
-0.0397922
-0.0406456
-0.0413982
-0.0420423
-0.0425778
-0.0430063
-0.0433228
-0.0435226
-0.0435652
0.00858669
0.00706005
0.00554834
0.00402645
0.00246198
0.000911802
-0.000691297
-0.00229625
-0.00391141
-0.00556354
-0.00721847
-0.0088753
-0.0105434
-0.0122355
-0.0138965
-0.01556
-0.0172191
-0.0188724
-0.0204937
-0.0220836
-0.0236529
-0.0251888
-0.0266899
-0.0281288
-0.0295152
-0.0308508
-0.0321262
-0.0333342
-0.0344658
-0.0355101
-0.0364766
-0.0373585
-0.0381493
-0.0388447
-0.0394377
-0.0399279
-0.0403166
-0.0405992
-0.0407712
-0.0407927
0.00816336
0.00671501
0.00527905
0.00383362
0.00234982
0.000878779
-0.000639687
-0.00215953
-0.00368826
-0.00524965
-0.00681279
-0.00837688
-0.00995019
-0.0115439
-0.0131083
-0.0146735
-0.0162333
-0.0177861
-0.0193083
-0.0208001
-0.0222713
-0.0237101
-0.025115
-0.0264614
-0.0277578
-0.0290055
-0.0301958
-0.0313221
-0.0323763
-0.0333481
-0.0342462
-0.0350641
-0.0357957
-0.0364369
-0.0369813
-0.0374285
-0.0377793
-0.0380294
-0.0381745
-0.0381756
0.00777161
0.0063973
0.00503316
0.00366023
0.00225274
0.000856663
-0.000581873
-0.00202135
-0.00346851
-0.00494443
-0.00642119
-0.00789802
-0.00938223
-0.0108836
-0.0123573
-0.0138304
-0.015297
-0.0167556
-0.0181849
-0.0195848
-0.020964
-0.0223119
-0.0236268
-0.0248865
-0.0260984
-0.0272636
-0.0283741
-0.0294238
-0.0304051
-0.0313089
-0.0321424
-0.0329
-0.0335757
-0.0341658
-0.0346643
-0.0350705
-0.0353852
-0.0356043
-0.0357236
-0.035705
0.00740889
0.00610464
0.00480864
0.00350449
0.00216925
0.00084422
-0.000518771
-0.00188231
-0.00325242
-0.00464779
-0.00604316
-0.00743782
-0.00883821
-0.0102528
-0.0116413
-0.0130278
-0.0144071
-0.0157775
-0.0171195
-0.0184333
-0.0197264
-0.020989
-0.0222196
-0.0233979
-0.0245306
-0.0256185
-0.0266541
-0.0276319
-0.0285449
-0.0293845
-0.0301575
-0.0308581
-0.0314812
-0.0320229
-0.032478
-0.0328455
-0.033126
-0.0333157
-0.0334104
-0.0333729
0.00707288
0.00583497
0.00460364
0.00336478
0.00209798
0.000840327
-0.000451216
-0.00174294
-0.00304022
-0.00435961
-0.00567825
-0.00699548
-0.00831696
-0.00964998
-0.0109583
-0.0122636
-0.0135609
-0.0148484
-0.0161087
-0.0173416
-0.0185539
-0.0197366
-0.0208882
-0.0219903
-0.0230487
-0.024064
-0.0250294
-0.0259397
-0.0267885
-0.027568
-0.0282839
-0.0289311
-0.0295045
-0.0300008
-0.0304149
-0.0307458
-0.030994
-0.0311558
-0.0312271
-0.0311716
0.00676144
0.00558638
0.00441648
0.00323961
0.00203769
0.000843959
-0.000379972
-0.00160374
-0.00283215
-0.00407982
-0.00532607
-0.00657029
-0.00781743
-0.00907375
-0.0103067
-0.0115355
-0.0127557
-0.0139655
-0.015149
-0.0163061
-0.0174426
-0.0185504
-0.0196279
-0.0206585
-0.0216472
-0.0225945
-0.0234941
-0.024341
-0.0251296
-0.0258526
-0.0265149
-0.0271118
-0.0276387
-0.0280921
-0.0284677
-0.0287643
-0.028982
-0.0291175
-0.0291668
-0.0290943
0.00647265
0.00535716
0.0042456
0.00312765
0.00198722
0.00085418
-0.000305735
-0.00146518
-0.00262841
-0.00380834
-0.00498627
-0.00616159
-0.00733865
-0.00852278
-0.00968471
-0.0108417
-0.0119894
-0.0131262
-0.0142376
-0.0153235
-0.0163889
-0.0174264
-0.0184344
-0.0193979
-0.0203213
-0.0212048
-0.0220426
-0.0228303
-0.0235623
-0.0242323
-0.0248443
-0.0253941
-0.0258772
-0.0262906
-0.02663
-0.0268942
-0.0270834
-0.0271942
-0.0272228
-0.0271344
0.0062047
0.00514571
0.00408961
0.00302763
0.00194556
0.000870135
-0.00022914
-0.00132765
-0.00242919
-0.0035451
-0.0046585
-0.00576879
-0.00687975
-0.00799591
-0.00909096
-0.0101802
-0.0112599
-0.012328
-0.0133718
-0.0143908
-0.0153894
-0.016361
-0.0173039
-0.0182044
-0.0190665
-0.0198902
-0.0206701
-0.0214021
-0.0220812
-0.0227014
-0.0232664
-0.0237719
-0.0242141
-0.0245899
-0.0248955
-0.0251295
-0.0252919
-0.0253797
-0.025389
-0.0252861
0.00595596
0.00495058
0.00394719
0.00293844
0.00191173
0.000891046
-0.000150766
-0.00119155
-0.00223465
-0.00329004
-0.00434246
-0.00539133
-0.00643992
-0.00749204
-0.00852406
-0.00954963
-0.0105652
-0.0115689
-0.012549
-0.0135051
-0.0144411
-0.0153508
-0.0162325
-0.017074
-0.0178786
-0.0186462
-0.0193719
-0.0200518
-0.0206813
-0.0212549
-0.0217757
-0.0222399
-0.0226438
-0.0229845
-0.0232584
-0.0234643
-0.0236018
-0.0236682
-0.0236597
-0.0235435
0.00572492
0.00477042
0.00381717
0.00285903
0.00188488
0.000916204
-7.11347e-05
-0.0010572
-0.00204493
-0.00304309
-0.00403786
-0.00502868
-0.00601839
-0.00701016
-0.00798276
-0.00894833
-0.00990355
-0.0108466
-0.0117669
-0.0126639
-0.0135411
-0.0143927
-0.0152171
-0.0160032
-0.0167538
-0.0174688
-0.0181437
-0.0187747
-0.0193578
-0.0198878
-0.0203673
-0.0207929
-0.021161
-0.021469
-0.0217135
-0.0218931
-0.0220077
-0.0220544
-0.0220296
-0.0219015
0.00551021
0.00460401
0.00369845
0.00278845
0.00186421
0.000944963
9.28147e-06
-0.000924899
-0.00186017
-0.00280417
-0.00374442
-0.00468036
-0.00561446
-0.00654933
-0.00746589
-0.00837492
-0.00927336
-0.0101594
-0.0110234
-0.0118649
-0.0126868
-0.0134838
-0.0142544
-0.0149885
-0.0156886
-0.0163543
-0.0169815
-0.0175669
-0.0181065
-0.0185956
-0.0190366
-0.0194261
-0.0197608
-0.0200384
-0.0202555
-0.020411
-0.0205043
-0.020533
-0.0204935
-0.0203551
0.00531054
0.00445022
0.00359003
0.00272583
0.00184899
0.000976735
9.00546e-05
-0.000794916
-0.00168044
-0.0025732
-0.00346188
-0.00434593
-0.00522749
-0.0061087
-0.00697239
-0.00782813
-0.00867308
-0.00950546
-0.0103165
-0.0111058
-0.0118757
-0.0126216
-0.0133417
-0.014027
-0.0146796
-0.0152991
-0.0158817
-0.0164243
-0.0169233
-0.0173743
-0.0177792
-0.0181351
-0.0184388
-0.018688
-0.0188798
-0.019013
-0.0190869
-0.0190992
-0.0190465
-0.0188993
0.00512475
0.00430801
0.003491
0.00267037
0.00183856
0.00101098
0.000170796
-0.00066749
-0.00150584
-0.00235008
-0.00318997
-0.00402496
-0.00485688
-0.00568744
-0.00650124
-0.00730673
-0.00810129
-0.00888317
-0.00964446
-0.0103846
-0.0111057
-0.0118035
-0.0124762
-0.0131157
-0.0137238
-0.0143001
-0.0148409
-0.0153435
-0.0158044
-0.0162197
-0.016591
-0.0169155
-0.0171904
-0.0174134
-0.0175819
-0.0176945
-0.0177508
-0.0177484
-0.017684
-0.0175296
0.00495174
0.00417642
0.00340049
0.00262133
0.00183231
0.00104722
0.000251153
-0.000542836
-0.00133645
-0.00213474
-0.00292845
-0.00371703
-0.00450203
-0.0052848
-0.0060515
-0.00680961
-0.00755668
-0.00829102
-0.00900544
-0.00969939
-0.0103746
-0.0110272
-0.0116554
-0.012252
-0.0128183
-0.013354
-0.0138557
-0.0143208
-0.0147462
-0.0151282
-0.0154683
-0.0157636
-0.0160117
-0.0162105
-0.0163574
-0.0164513
-0.0164915
-0.0164759
-0.0164015
-0.0162414
0.0047905
0.00405456
0.00331774
0.00257805
0.00182969
0.001085
0.00033081
-0.000421141
-0.00117232
-0.00192709
-0.00267709
-0.00342175
-0.0041624
-0.00490005
-0.00562228
-0.00633569
-0.00703801
-0.00772758
-0.00839789
-0.00904835
-0.00968045
-0.0102905
-0.010877
-0.0114333
-0.0119605
-0.0124582
-0.0129233
-0.0133534
-0.0137455
-0.0140965
-0.0144073
-0.0146756
-0.0148988
-0.0150752
-0.0152023
-0.0152791
-0.0153048
-0.0152776
-0.0151945
-0.0150301
0.00464014
0.00394162
0.00324203
0.0025399
0.00183018
0.00112392
0.000409482
-0.000302568
-0.00101348
-0.00172704
-0.00243564
-0.00313875
-0.00383745
-0.00453251
-0.00521274
-0.00588397
-0.0065441
-0.00719151
-0.00782029
-0.00842983
-0.00902136
-0.00959152
-0.0101388
-0.0106572
-0.0111478
-0.0116098
-0.0120407
-0.012438
-0.0127991
-0.0131211
-0.0134047
-0.0136478
-0.0138481
-0.0140038
-0.0141128
-0.0141739
-0.0141867
-0.0141491
-0.0140587
-0.0138914
0.00449978
0.00383684
0.00317269
0.00250631
0.00183333
0.00116361
0.000486916
-0.000187262
-0.00085998
-0.00153447
-0.00220388
-0.00286766
-0.0035267
-0.00418152
-0.00482209
-0.00545352
-0.00607387
-0.00668156
-0.00727123
-0.00784224
-0.00839562
-0.00892828
-0.00943879
-0.00992167
-0.0103778
-0.0108065
-0.0112053
-0.011572
-0.0119042
-0.0121991
-0.0124574
-0.0126771
-0.012856
-0.0129927
-0.013085
-0.013132
-0.0131331
-0.0130865
-0.01299
-0.012821
0.00436866
0.00373955
0.00310912
0.00247677
0.00183871
0.00120374
0.000562882
-7.53431e-05
-0.000711817
-0.0013493
-0.00198159
-0.00260813
-0.00322966
-0.00384647
-0.00444958
-0.00504345
-0.00562628
-0.00619655
-0.00674937
-0.00728411
-0.0078016
-0.00829901
-0.00877498
-0.00922453
-0.00964835
-0.0100458
-0.0104146
-0.0107527
-0.0110578
-0.0113275
-0.0115622
-0.0117602
-0.0119194
-0.0120385
-0.0121155
-0.0121496
-0.0121402
-0.0120858
-0.0119843
-0.0118144
0.00424602
0.00364908
0.00305076
0.0024508
0.00184593
0.00124402
0.000637181
3.3085e-05
-0.000568998
-0.00117142
-0.00176854
-0.00235984
-0.00294586
-0.00352677
-0.00409448
-0.0046529
-0.00520035
-0.00573535
-0.00625346
-0.00675405
-0.0072378
-0.00770208
-0.00814561
-0.00856387
-0.00895741
-0.00932562
-0.0096663
-0.0099776
-0.0102574
-0.0105035
-0.0107164
-0.0108941
-0.0110351
-0.0111379
-0.0112009
-0.0112232
-0.0112045
-0.0111432
-0.0110376
-0.0108676
0.00413122
0.00356486
0.0029971
0.00242796
0.00185464
0.00128416
0.000709634
0.000137937
-0.000431513
-0.0010007
-0.00156452
-0.00212244
-0.00267488
-0.00322187
-0.00375614
-0.00428109
-0.00479515
-0.00529691
-0.00578232
-0.00625077
-0.00670277
-0.00713593
-0.00754899
-0.00793788
-0.008303
-0.00864376
-0.00895813
-0.00924438
-0.00950061
-0.00972474
-0.0099171
-0.0100761
-0.0102001
-0.0102879
-0.010338
-0.0103496
-0.0103224
-0.010255
-0.010146
-0.00997652
0.0040236
0.00348633
0.00294766
0.00240785
0.00186452
0.00132394
0.000780081
0.000239142
-0.000299342
-0.000837032
-0.00136931
-0.00189562
-0.0024163
-0.00293123
-0.0034339
-0.00392726
-0.00440983
-0.00488024
-0.00533485
-0.00577303
-0.00619518
-0.00659908
-0.00698353
-0.00734484
-0.0076833
-0.00799832
-0.00828803
-0.00855085
-0.008785
-0.0089886
-0.00916189
-0.00930339
-0.00941165
-0.00948554
-0.00952374
-0.00952549
-0.00949059
-0.00941786
-0.00930598
-0.00913725
0.00392261
0.00341299
0.002902
0.00239011
0.00187527
0.00136312
0.000848384
0.000336642
-0.000172461
-0.000680301
-0.00118269
-0.00167909
-0.00216972
-0.00265436
-0.00312717
-0.00359069
-0.00404355
-0.00448443
-0.00491002
-0.0053197
-0.00571376
-0.00609015
-0.00644771
-0.00678312
-0.00709656
-0.00738746
-0.00765408
-0.00789494
-0.00810844
-0.00829286
-0.00844834
-0.00857355
-0.00866716
-0.00872813
-0.00875529
-0.00874797
-0.00870603
-0.00862841
-0.00851403
-0.00834617
0.00382768
0.00334436
0.00285971
0.00237438
0.00188663
0.0014015
0.000914419
0.00043039
-5.0836e-05
-0.000530389
-0.00100447
-0.00147255
-0.00193474
-0.00239076
-0.00283536
-0.00327071
-0.00369554
-0.00410859
-0.00450684
-0.00488968
-0.00525731
-0.00560783
-0.00594014
-0.00625122
-0.00654118
-0.00680944
-0.00705441
-0.00727472
-0.0074689
-0.00763536
-0.0077742
-0.00788421
-0.00796414
-0.00801308
-0.00802998
-0.00801423
-0.00796576
-0.00788362
-0.00776695
-0.00759987
0.00373835
0.00328002
0.00282044
0.00236036
0.00189836
0.00143891
0.000978078
0.000520352
6.55712e-05
-0.000387177
-0.000834452
-0.00127571
-0.00171101
-0.00213998
-0.00255791
-0.00296667
-0.00336506
-0.00375188
-0.00412437
-0.00448194
-0.00482469
-0.00515089
-0.00545947
-0.00574769
-0.00601561
-0.00626264
-0.00648731
-0.00668837
-0.00686444
-0.0070141
-0.00713738
-0.00723316
-0.00730032
-0.00733801
-0.00734531
-0.00732169
-0.00726709
-0.00718069
-0.0070618
-0.00689526
0.00365413
0.00321956
0.00278382
0.00234776
0.00191022
0.00147519
0.00103927
0.000606503
0.000176806
-0.000250546
-0.000672431
-0.0010883
-0.00149816
-0.00190158
-0.00229432
-0.00267797
-0.00305142
-0.00341351
-0.00376173
-0.00409551
-0.00441485
-0.00471818
-0.00500445
-0.00527121
-0.00551842
-0.00574553
-0.00595117
-0.00613418
-0.00629329
-0.0064272
-0.00653589
-0.00661835
-0.00667355
-0.0067007
-0.006699
-0.00666795
-0.00660754
-0.00651704
-0.00639589
-0.00622958
0.0035746
0.00316262
0.00274954
0.00233633
0.00192202
0.00151019
0.00109791
0.000688827
0.000282918
-0.000120374
-0.000518216
-0.000910068
-0.00129586
-0.00167512
-0.00204407
-0.00240403
-0.00275395
-0.00309273
-0.00341809
-0.00372946
-0.00402678
-0.00430859
-0.00457391
-0.00482049
-0.00504827
-0.00525668
-0.00544447
-0.00561055
-0.00575376
-0.00587291
-0.00596793
-0.00603789
-0.00608186
-0.00609911
-0.00608891
-0.00605082
-0.00598484
-0.00589033
-0.00576682
-0.00560034
0.00349935
0.00310883
0.00271731
0.00232582
0.00193357
0.00154378
0.00115393
0.000767316
0.000383963
3.46024e-06
-0.000371618
-0.000740736
-0.00110377
-0.00146023
-0.00180669
-0.00214429