/*--------------------------------*- C++ -*----------------------------------*\
| =========                 |                                                 |
| \\      /  F ield         | OpenFOAM: The Open Source CFD Toolbox           |
|  \\    /   O peration     | Version:  3.0.1                                 |
|   \\  /    A nd           | Web:      www.OpenFOAM.org                      |
|    \\/     M anipulation  |                                                 |
\*---------------------------------------------------------------------------*/
FoamFile
{
    version     2.0;
    format      ascii;
    class       surfaceScalarField;
    location    "500";
    object      phi;
}
// * * * * * * * * * * * * * * * * * * * * * * * * * * * * * * * * * * * * * //

dimensions      [0 3 -1 0 0 0 0];

internalField   nonuniform List<scalar> 
115520
(
0.013491
-0.00162337
-0.0118676
0.0146411
-0.00115016
0.0148681
-0.000226995
0.0146033
0.000264891
0.0141014
0.000501844
0.0134326
0.000668798
0.0128087
0.000623959
0.0122414
0.000567274
0.0117158
0.000525532
0.0113269
0.000388908
0.0110635
0.00026346
0.0108756
0.000187823
0.0107607
0.000114987
0.0107597
9.65909e-07
0.0108113
-5.15836e-05
0.0108962
-8.48824e-05
0.0110039
-0.000107711
0.0111411
-0.000137181
0.011296
-0.000154961
0.0114509
-0.000154848
0.0116005
-0.000149658
0.0117413
-0.000140734
0.0118815
-0.000140237
0.0120133
-0.000131778
0.0121306
-0.000117321
0.0122324
-0.00010178
0.0123177
-8.53411e-05
0.0123892
-7.14823e-05
0.0124503
-6.11138e-05
0.0124928
-4.25151e-05
0.012516
-2.31536e-05
0.0125182
-2.25721e-06
0.0124978
2.04846e-05
0.0124538
4.39672e-05
0.0123668
8.69532e-05
0.012243
0.000123838
0.0121007
0.000142342
0.0119566
0.000144034
0.0118288
0.000127851
9.86909e-05
0.0117301
0.00851354
-0.00277008
-0.00736683
0.0095495
-0.00218612
0.0105504
-0.0012279
0.0114653
-0.000650053
0.0122473
-0.000280085
0.0128652
5.09086e-05
0.0133369
0.0001522
0.013679
0.000225232
0.0138919
0.000312634
0.0140409
0.000239917
0.0141457
0.000158569
0.0141952
0.000138378
0.0142043
0.00010583
0.0142467
-4.13997e-05
0.0142841
-8.89647e-05
0.0143161
-0.000116857
0.0143467
-0.000138389
0.0144028
-0.000193223
0.0144756
-0.000227786
0.014547
-0.000226192
0.0146162
-0.000218917
0.014682
-0.000206517
0.0147607
-0.000218921
0.0148383
-0.000209375
0.0149064
-0.000185397
0.0149638
-0.000159256
0.0150097
-0.000131172
0.0150476
-0.000109433
0.0150823
-9.58277e-05
0.0151024
-6.25757e-05
0.015108
-2.87158e-05
0.0151002
5.50816e-06
0.0150806
4.00511e-05
0.0150529
7.16445e-05
0.0150142
0.000125669
0.0149593
0.000178737
0.0148894
0.000212263
0.0148061
0.000227397
0.0147109
0.000223019
0.00019941
0.0146102
0.00803121
-0.00382036
-0.00698093
0.00897617
-0.00313108
0.009837
-0.00208873
0.0106354
-0.00144846
0.0113226
-0.000967235
0.0119706
-0.000597118
0.0125188
-0.000396059
0.0129954
-0.00025129
0.0134055
-9.7488e-05
0.0137432
-9.77812e-05
0.0140251
-0.000123327
0.0142566
-9.31014e-05
0.0144425
-8.01448e-05
0.0146173
-0.00021616
0.0147715
-0.000243214
0.0149073
-0.00025266
0.0150293
-0.000260386
0.0151572
-0.000321087
0.0152879
-0.000358449
0.0154102
-0.000348491
0.0155245
-0.000333203
0.0156303
-0.00031239
0.0157409
-0.000329451
0.0158457
-0.000314187
0.0159385
-0.000278237
0.0160187
-0.000239451
0.0160855
-0.000197925
0.0161418
-0.000165735
0.0161911
-0.000145113
0.0162239
-9.54144e-05
0.01624
-4.47857e-05
0.0162388
6.66956e-06
0.0162201
5.87619e-05
0.0161868
0.000104892
0.0161395
0.000173046
0.0160742
0.00024401
0.0159932
0.000293257
0.0158982
0.000322377
0.0157894
0.00033183
0.000322006
0.0156668
0.00727385
-0.00471169
-0.00638252
0.00814371
-0.00400093
0.00898724
-0.00293227
0.00980062
-0.00226183
0.0105354
-0.001702
0.0112345
-0.00129628
0.0118559
-0.00101741
0.01242
-0.00081544
0.0129326
-0.00061007
0.0133831
-0.000548303
0.0137822
-0.000522361
0.0141354
-0.000446343
0.0144436
-0.000388279
0.0147216
-0.000494238
0.0149702
-0.000491731
0.0151909
-0.000473417
0.0153874
-0.000456899
0.0155735
-0.000507203
0.0157504
-0.000535297
0.0159124
-0.000510549
0.0160609
-0.000481676
0.0161965
-0.000448003
0.0163297
-0.000462633
0.0164536
-0.000438106
0.0165638
-0.000388408
0.0166599
-0.000335497
0.0167413
-0.000279404
0.0168107
-0.000235153
0.0168709
-0.000205305
0.0169143
-0.000138811
0.0169406
-7.10276e-05
0.0169493
-2.04548e-06
0.01694
6.80169e-05
0.0169149
0.000130069
0.016874
0.000213887
0.0168136
0.000304403
0.0167347
0.000372194
0.0166383
0.000418733
0.0165252
0.00044499
0.00045184
0.0163953
0.00692429
-0.00553418
-0.00610181
0.00774094
-0.00481758
0.00854934
-0.00374067
0.00935229
-0.00306478
0.0101002
-0.00244992
0.0108317
-0.00202781
0.0114975
-0.0016832
0.012116
-0.00143391
0.0126941
-0.00118813
0.013213
-0.00106724
0.0136817
-0.00099102
0.0141087
-0.000873352
0.0144931
-0.000772686
0.0148384
-0.000839556
0.0151514
-0.000804779
0.0154341
-0.000756054
0.0156885
-0.000711362
0.0159239
-0.000742536
0.0161427
-0.000754078
0.0163422
-0.000710129
0.0165239
-0.000663335
0.0166886
-0.000612751
0.0168451
-0.000619086
0.0169887
-0.000581759
0.0171164
-0.000516061
0.0172279
-0.000447015
0.0173231
-0.000374574
0.0174041
-0.000316192
0.0174735
-0.000274709
0.0175251
-0.000190338
0.0175584
-0.000104349
0.0175732
-1.68462e-05
0.0175692
7.20379e-05
0.0175482
0.000151035
0.0175108
0.000251328
0.0174534
0.000361796
0.0173764
0.000449146
0.0172804
0.000514783
0.0171655
0.000559857
0.000585507
0.0170318
0.00667579
-0.00631545
-0.00589451
0.00745815
-0.00559995
0.00823987
-0.00452239
0.00902548
-0.0038504
0.00977466
-0.0031991
0.0105199
-0.00277308
0.0112154
-0.00237864
0.0118748
-0.0020933
0.012504
-0.00181731
0.0130804
-0.00164369
0.0136101
-0.00152066
0.0141018
-0.00136511
0.0145534
-0.00122427
0.0149603
-0.0012465
0.0153329
-0.00117737
0.015673
-0.00109609
0.0159818
-0.00102017
0.0162645
-0.00102524
0.0165245
-0.00101412
0.0167615
-0.000947105
0.0169766
-0.000878499
0.0171711
-0.00080721
0.0173516
-0.000799624
0.0175157
-0.00074586
0.0176613
-0.000661661
0.0177885
-0.000574216
0.0178974
-0.000483385
0.0179898
-0.000408606
0.0180681
-0.000353017
0.0181272
-0.000249489
0.018167
-0.000144108
0.0181871
-3.69823e-05
0.0181874
7.17457e-05
0.0181695
0.000168912
0.018134
0.000286858
0.0180778
0.000418046
0.018001
0.00052593
0.0179039
0.000611865
0.0177867
0.000677068
0.000722782
0.0176494
0.00652652
-0.00707711
-0.00576487
0.00729067
-0.0063641
0.00805603
-0.00528775
0.00882788
-0.00462225
0.00957356
-0.00394477
0.0103217
-0.00352128
0.0110321
-0.00308904
0.0117159
-0.0027771
0.0123785
-0.00247989
0.0129962
-0.00226132
0.0135723
-0.00209681
0.0141155
-0.00190832
0.0146225
-0.00173126
0.0150829
-0.00170686
0.0155086
-0.00160313
0.0159012
-0.00148869
0.0162611
-0.00138002
0.0165899
-0.00135405
0.0168914
-0.00131563
0.0171668
-0.0012225
0.0174171
-0.00112881
0.0176433
-0.00103344
0.0178505
-0.00100677
0.0180377
-0.000933015
0.0182037
-0.000827693
0.0183489
-0.000719382
0.0184733
-0.000607863
0.0185789
-0.000514164
0.0186676
-0.000441774
0.0187357
-0.0003175
0.0187828
-0.000191234
0.0188089
-6.30935e-05
0.0188139
6.67779e-05
0.0187992
0.000183574
0.0187655
0.000320585
0.01871
0.000473499
0.018633
0.000602994
0.0185344
0.000710382
0.0184146
0.000796886
0.00086378
0.0182736
0.00643792
-0.00783196
-0.00568307
0.00719537
-0.00712155
0.00795419
-0.00604657
0.00871927
-0.00538734
0.00946401
-0.00468951
0.0102134
-0.00427064
0.0109332
-0.00380884
0.0116328
-0.00347676
0.0123175
-0.00316461
0.0129646
-0.00290839
0.0135758
-0.00270802
0.014159
-0.0024915
0.0147104
-0.00228268
0.0152159
-0.00221238
0.015688
-0.00207518
0.0161275
-0.00192819
0.016534
-0.00178656
0.0169065
-0.00172649
0.0172484
-0.00165754
0.017562
-0.00153611
0.017848
-0.00141483
0.0181072
-0.00129263
0.0183428
-0.00124233
0.018555
-0.00114529
0.0187437
-0.00101632
0.018909
-0.000884687
0.0190512
-0.00075012
0.0191719
-0.000634878
0.019273
-0.000542854
0.0193516
-0.000396058
0.0194076
-0.000247229
0.019441
-9.648e-05
0.0194517
5.60402e-05
0.0194411
0.00019412
0.0194099
0.000351798
0.0193558
0.000527638
0.0192788
0.000679968
0.0191792
0.00081005
0.019057
0.000919086
0.00100833
0.0189124
0.00639509
-0.00858884
-0.00563821
0.00715415
-0.00788062
0.00791412
-0.00680654
0.00867921
-0.00615242
0.00942728
-0.00543758
0.01018
-0.00502331
0.0109083
-0.00453719
0.0116205
-0.00418898
0.0123216
-0.00386565
0.0129908
-0.00357758
0.0136289
-0.0033462
0.0142432
-0.00310575
0.0148298
-0.00286926
0.0153727
-0.00275533
0.015884
-0.00258646
0.0163641
-0.0024083
0.016812
-0.00223444
0.0172243
-0.00213882
0.0176042
-0.00203744
0.0179545
-0.00188636
0.0182754
-0.00173574
0.0185674
-0.00158465
0.0188321
-0.001507
0.0190706
-0.00138385
0.0192833
-0.00122893
0.0194703
-0.00107169
0.0196319
-0.000911804
0.0197695
-0.000772448
0.0198846
-0.000657976
0.0199754
-0.00048679
0.0200417
-0.000313605
0.0200838
-0.000138528
0.0201015
3.82892e-05
0.0200962
0.000199448
0.0200685
0.000379537
0.0200165
0.00057965
0.0199403
0.000756167
0.01984
0.00091029
0.0197159
0.00104318
0.00115603
0.0195682
0.00638697
-0.00935405
-0.00562176
0.0071538
-0.00864745
0.00792092
-0.00757366
0.00869178
-0.00692327
0.00944761
-0.00619341
0.0102071
-0.00578278
0.0109456
-0.00527568
0.0116702
-0.0049136
0.0123856
-0.00458107
0.0130734
-0.00426538
0.0137339
-0.00400671
0.0143735
-0.00374535
0.0149887
-0.00348446
0.0155631
-0.00332968
0.0161077
-0.00313109
0.0166227
-0.00292336
0.0171067
-0.00271843
0.0175549
-0.00258694
0.0179696
-0.00245221
0.018354
-0.00227077
0.018708
-0.00208972
0.0190317
-0.00190832
0.0193251
-0.00180044
0.0195901
-0.00164884
0.0198272
-0.00146602
0.0200366
-0.00128113
0.0202187
-0.00109385
0.0203742
-0.000927982
0.0205046
-0.000788373
0.0206088
-0.000590931
0.0206867
-0.000391567
0.0207386
-0.00019039
0.0207644
1.24454e-05
0.0207653
0.000198551
0.020742
0.000402879
0.0206929
0.000628715
0.0206182
0.000830867
0.020518
0.00101046
0.0203926
0.00116861
0.00130644
0.0202422
0.00640659
-0.0101324
-0.00562828
0.00718592
-0.00942678
0.00796491
-0.00835265
0.00874629
-0.00770465
0.00951388
-0.006961
0.0102838
-0.0065527
0.0110348
-0.00602672
0.0117732
-0.00565198
0.0125032
-0.00531103
0.0132085
-0.00497067
0.0138891
-0.00468738
0.0145509
-0.00440713
0.0151906
-0.00412417
0.0157922
-0.00393128
0.0163658
-0.00370469
0.0169113
-0.00346887
0.017427
-0.00323411
0.0179071
-0.00306705
0.0183536
-0.0028987
0.0187695
-0.00268662
0.0191543
-0.00247452
0.0195078
-0.00226187
0.019829
-0.00212162
0.0201199
-0.00193973
0.0203812
-0.00172736
0.0206131
-0.00151306
0.0208159
-0.00129656
0.0209899
-0.001102
0.0211363
-0.00093477
0.0212546
-0.000709261
0.021345
-0.000481926
0.0214074
-0.00025288
0.0214422
-2.22928e-05
0.0214501
0.000190648
0.0214319
0.00042108
0.0213865
0.000674154
0.0213139
0.000903452
0.0212143
0.00111003
0.021088
0.00129491
0.00145914
0.0209353
0.00644911
-0.0109275
-0.00565393
0.00724474
-0.0102224
0.00803943
-0.00914733
0.00883526
-0.00850049
0.0096181
-0.00774383
0.0104019
-0.00733645
0.0111681
-0.00679295
0.0119222
-0.00640606
0.0126679
-0.00605679
0.013391
-0.00569374
0.0140913
-0.00538765
0.0147738
-0.00508971
0.0154359
-0.00478622
0.0160622
-0.00455757
0.0166618
-0.00430432
0.0172346
-0.00404162
0.0177786
-0.00377811
0.0182876
-0.00357608
0.0187631
-0.00337418
0.0192078
-0.00313138
0.0196212
-0.00288788
0.0200027
-0.00264336
0.0203503
-0.0024692
0.0206661
-0.00225556
0.020951
-0.00201229
0.021205
-0.00176707
0.0214282
-0.00151973
0.0216208
-0.00129455
0.0217834
-0.00109745
0.0219163
-0.000842154
0.0220195
-0.000585121
0.0220931
-0.000326484
0.0221373
-6.64321e-05
0.0221527
0.000175212
0.0221402
0.000433613
0.0220989
0.000715479
0.0220288
0.000973477
0.0219303
0.00120857
0.0218035
0.00142171
0.00161384
0.0216488
0.00651117
-0.0117427
-0.005696
0.00732625
-0.0110375
0.00813983
-0.00996091
0.00895344
-0.0093141
0.00975455
-0.00854494
0.0105552
-0.00813712
0.0113392
-0.00757694
0.0121112
-0.00717802
0.0128744
-0.00682009
0.0136163
-0.00643563
0.0143366
-0.00610791
0.0150398
-0.00579287
0.0157233
-0.00546974
0.0163729
-0.00520723
0.0169969
-0.00492828
0.0175948
-0.00463953
0.0181648
-0.00434808
0.0187004
-0.00411172
0.0192027
-0.00387648
0.0196743
-0.00360294
0.0201142
-0.00332783
0.0205219
-0.003051
0.0208945
-0.0028418
0.0212341
-0.00259525
0.0215418
-0.00231991
0.0218172
-0.00204249
0.0220603
-0.00176288
0.0222712
-0.00150538
0.0224501
-0.00127639
0.0225976
-0.00098968
0.0227138
-0.000701296
0.0227987
-0.000411404
0.0228525
-0.000120216
0.0228757
0.000151957
0.0228692
0.000440168
0.0228323
0.000752398
0.0227651
0.00104067
0.0226678
0.00130585
0.0225407
0.0015488
0.00177038
0.0223842
0.00659034
-0.0125806
-0.0057525
0.00742758
-0.0118747
0.00826281
-0.0107961
0.00909706
-0.0101483
0.00991912
-0.009367
0.0107394
-0.00895743
0.0115436
-0.0083811
0.0123356
-0.00797001
0.0131183
-0.00760284
0.0138805
-0.00719776
0.0146217
-0.0068491
0.0153459
-0.0065171
0.0160509
-0.00617473
0.0167235
-0.00587981
0.0173709
-0.00557574
0.0179928
-0.00526144
0.0185873
-0.00494256
0.019148
-0.00467242
0.0196756
-0.00440403
0.0201723
-0.0040997
0.0206373
-0.00379277
0.0210695
-0.00348327
0.0214659
-0.00323816
0.0218284
-0.00295773
0.0221578
-0.00264931
0.0224538
-0.00233853
0.0227163
-0.00202538
0.022945
-0.00173402
0.0231399
-0.00147134
0.0233019
-0.00115169
0.023431
-0.000830379
0.0235272
-0.000507626
0.0235907
-0.000183679
0.0236219
0.000120796
0.0236214
0.000440621
0.023589
0.000784794
0.0235248
0.00110493
0.0234288
0.00140178
0.0233015
0.00167613
0.00192871
0.0231432
0.00668487
-0.0134435
-0.00582197
0.00754669
-0.0127365
0.00840601
-0.0116555
0.00926345
-0.0110058
0.0101089
-0.0102124
0.0109513
-0.00979989
0.0117779
-0.00920769
0.012592
-0.00878414
0.0133962
-0.008407
0.0141802
-0.00798172
0.0149435
-0.00761244
0.0156897
-0.00726334
0.0164167
-0.00690174
0.0171124
-0.00657548
0.0177832
-0.00624653
0.0184286
-0.00590686
0.0190468
-0.00556079
0.0196317
-0.00525726
0.0201835
-0.00495581
0.0207043
-0.00462054
0.0211931
-0.00428153
0.0216488
-0.00393897
0.0220679
-0.00365727
0.0224523
-0.0033421
0.0228026
-0.00299966
0.0231185
-0.00265446
0.0233997
-0.00230659
0.0236457
-0.00197999
0.0238563
-0.00168196
0.0240326
-0.00132791
0.0241743
-0.00097216
0.0242817
-0.000614992
0.0243547
-0.000256703
0.0243937
8.17921e-05
0.0243993
0.000434997
0.0243715
0.000812693
0.0243101
0.00116628
0.0242155
0.0014964
0.0240879
0.00180373
0.00208891
0.0239277
0.00679346
-0.0143336
-0.00590332
0.00768206
-0.0136251
0.00856771
-0.0125411
0.00945064
-0.0118887
0.0103216
-0.0110834
0.0111885
-0.0106668
0.0120396
-0.0100588
0.0128779
-0.00962239
0.0137054
-0.0092345
0.0145128
-0.00878918
0.0152998
-0.00839936
0.0160692
-0.00803275
0.0168191
-0.00765167
0.0175384
-0.00729477
0.0182328
-0.00694093
0.0189018
-0.00657583
0.0195435
-0.00620253
0.0201521
-0.00586582
0.0207275
-0.00553128
0.0212718
-0.00516479
0.0217836
-0.00479334
0.0222619
-0.00441729
0.022703
-0.00409837
0.0231085
-0.00374763
0.0234791
-0.00337026
0.0238143
-0.00298963
0.0241136
-0.00260593
0.0243764
-0.00224277
0.0246023
-0.00190787
0.0247924
-0.001518
0.0249466
-0.00112635
0.0250649
-0.000733258
0.0251473
-0.000339076
0.0251939
3.51158e-05
0.0252055
0.00042343
0.025182
0.00083623
0.0251234
0.00122486
0.0250299
0.00158986
0.0249019
0.00193178
0.00225116
0.0247396
0.00691516
-0.015253
-0.00599574
0.0078326
-0.0145426
0.00874667
-0.0134552
0.00965723
-0.0127993
0.0105558
-0.011982
0.0114493
-0.0115602
0.012327
-0.0109365
0.0131913
-0.0104867
0.014044
-0.0100872
0.0148766
-0.00962183
0.0156886
-0.00921133
0.0164825
-0.00882667
0.0172565
-0.00842565
0.0180003
-0.00803854
0.0187189
-0.00765957
0.0194118
-0.00726873
0.0200772
-0.00686794
0.0207095
-0.00649806
0.0213085
-0.00613025
0.0218758
-0.00573212
0.0224102
-0.00532778
0.0229106
-0.0049177
0.0233732
-0.00456092
0.0237994
-0.00417382
0.0241897
-0.0037606
0.0245436
-0.00334352
0.0248606
-0.00292288
0.0251397
-0.00252191
0.0253805
-0.0021487
0.0255842
-0.00172164
0.0257505
-0.00129265
0.0258794
-0.000862136
0.0259708
-0.000430531
0.0260249
-1.89982e-05
0.0260422
0.000406126
0.0260228
0.000855619
0.0259668
0.0012809
0.0258743
0.00168239
0.0257455
0.00206052
0.00241573
0.025581
0.00704927
-0.0162037
-0.00609861
0.00799753
-0.0154908
0.00894201
-0.0143997
0.00988224
-0.0137395
0.0108104
-0.0129101
0.0117324
-0.0124822
0.0126386
-0.0118427
0.0135309
-0.011379
0.0144106
-0.010967
0.0152702
-0.0104814
0.0161087
-0.0100499
0.0169285
-0.0096465
0.0177278
-0.00922495
0.0184971
-0.0088078
0.0192408
-0.00840327
0.0199583
-0.00798621
0.0206478
-0.0075575
0.0213041
-0.00715428
0.0219267
-0.00675286
0.0225171
-0.00632254
0.023074
-0.00588472
0.0235963
-0.00543996
0.02408
-0.00504468
0.0245266
-0.00462035
0.0249363
-0.00417032
0.0253085
-0.00371576
0.0256427
-0.00325707
0.0259379
-0.00281706
0.0261933
-0.00240415
0.0264102
-0.00193852
0.0265883
-0.00147075
0.0267275
-0.00100133
0.0268277
-0.000530782
0.026889
-8.02821e-05
0.0269118
0.000383339
0.0268963
0.000871123
0.0268425
0.00133467
0.0267506
0.00177428
0.0266209
0.00219027
0.00258295
0.0264537
0.00719531
-0.0171875
-0.00621152
0.0081763
-0.0164718
0.0091531
-0.0153765
0.010125
-0.0147114
0.0110846
-0.0138698
0.0120372
-0.0134348
0.0129737
-0.0127792
0.0138957
-0.012301
0.0148043
-0.0118756
0.0156924
-0.0113694
0.0165591
-0.0109166
0.0174063
-0.0104937
0.0182323
-0.0100509
0.0190282
-0.00960369
0.0197979
-0.00917304
0.0205408
-0.00872912
0.0212552
-0.00827188
0.0219359
-0.00783498
0.0225825
-0.00739949
0.0231963
-0.00693628
0.0237758
-0.00646426
0.0243199
-0.00598408
0.0248248
-0.00554956
0.0252916
-0.0050871
0.0257205
-0.00459925
0.0261109
-0.00410612
0.026462
-0.00360824
0.0267729
-0.00312794
0.0270427
-0.00267396
0.0272726
-0.00216837
0.0274622
-0.00166038
0.0276115
-0.00115058
0.0277202
-0.000639545
0.0277884
-0.000148457
0.0278164
0.000355342
0.0278045
0.000883036
0.0277527
0.00138648
0.0276611
0.00186586
0.02753
0.00232137
0.0027532
0.0273597
0.00735293
-0.0182063
-0.00633414
0.00836853
-0.0174874
0.00937954
-0.0163875
0.0103849
-0.0157168
0.011378
-0.0148629
0.012363
-0.0144198
0.0133316
-0.0137478
0.0142852
-0.0132545
0.0152245
-0.0128149
0.0161428
-0.0122877
0.0170392
-0.011813
0.0179153
-0.0113698
0.0187694
-0.0109049
0.0195931
-0.0104274
0.02039
-0.00996998
0.0211594
-0.00949845
0.0218994
-0.00901192
0.0226053
-0.00854085
0.0232765
-0.00807067
0.023914
-0.00757377
0.0245164
-0.00706671
0.0250826
-0.00655025
0.0256087
-0.00607568
0.0260957
-0.00557411
0.0265438
-0.00504736
0.0269522
-0.00451453
0.0273203
-0.00397625
0.0276467
-0.0034544
0.0279307
-0.00295797
0.0281734
-0.002411
0.0283743
-0.00186133
0.0285333
-0.00130962
0.0286504
-0.000756554
0.0287251
-0.000223247
0.0287581
0.000322418
0.0287494
0.000891668
0.0286992
0.00143668
0.0286076
0.00195751
0.0284747
0.00245422
0.0029269
0.028301
0.00752193
-0.019262
-0.00646626
0.008574
-0.0185395
0.00962109
-0.0174346
0.0106619
-0.0167576
0.0116902
-0.0158911
0.0127095
-0.0154391
0.0137121
-0.0147505
0.014699
-0.0142414
0.0156707
-0.0137866
0.016621
-0.013238
0.0175487
-0.0127408
0.0184553
-0.0122764
0.0193388
-0.0117885
0.0201917
-0.0112804
0.021017
-0.0107953
0.0218139
-0.0102953
0.0225805
-0.00977861
0.0233124
-0.00927273
0.0240089
-0.00876713
0.0246707
-0.0082356
0.0252966
-0.00769256
0.0258851
-0.00713884
0.0264328
-0.00662334
0.0269403
-0.00608159
0.0274077
-0.00551477
0.0278342
-0.00494103
0.028219
-0.00436109
0.028561
-0.00379636
0.0288591
-0.0032561
0.0291144
-0.00266628
0.0293265
-0.00207341
0.0294951
-0.00147826
0.0296201
-0.000881572
0.0297013
-0.000304395
0.0297389
0.000284844
0.0297332
0.000897328
0.0296843
0.0014856
0.0295922
0.00204959
0.0294572
0.00258924
0.00310449
0.0292796
0.00770217
-0.0203564
-0.00660778
0.0087926
-0.0196299
0.00987765
-0.0185196
0.0109558
-0.0178358
0.0120211
-0.0169564
0.0130766
-0.0164946
0.0141151
-0.015789
0.0151371
-0.0152635
0.016143
-0.0147925
0.0171268
-0.0142218
0.0180875
-0.0137015
0.019026
-0.0132149
0.0199406
-0.0127031
0.0208241
-0.0121638
0.0216791
-0.0116502
0.0225046
-0.0111208
0.023299
-0.010573
0.0240578
-0.0100316
0.0247803
-0.00948967
0.0254672
-0.00892249
0.0261171
-0.00834241
0.0267286
-0.00775035
0.0272982
-0.00719292
0.0278264
-0.00660985
0.0283134
-0.00600172
0.0287581
-0.00538578
0.0291599
-0.00476284
0.0295174
-0.00415388
0.0298296
-0.00356832
0.0300975
-0.00293415
0.0303206
-0.00229654
0.0304987
-0.00165634
0.0306315
-0.0010144
0.0307188
-0.000391669
0.0307607
0.00024288
0.0307577
0.000900322
0.0307097
0.00153359
0.0306168
0.00214249
0.0304792
0.00272684
0.00328644
0.0302973
0.00789365
-0.0214914
-0.00675862
0.00902432
-0.0207606
0.0101492
-0.0196445
0.0112666
-0.0189532
0.0123708
-0.0180606
0.0134644
-0.0175881
0.0145405
-0.016865
0.0155994
-0.0163224
0.0166412
-0.0158343
0.0176604
-0.015241
0.0186557
-0.0146968
0.0196278
-0.014187
0.020575
-0.0136502
0.0214904
-0.0130793
0.0223764
-0.0125362
0.0232318
-0.0119762
0.0240551
-0.0113962
0.0248419
-0.0108184
0.0255915
-0.0102392
0.0263042
-0.00963526
0.0269788
-0.00901698
0.0276139
-0.0083854
0.0282059
-0.00778495
0.0287554
-0.00715932
0.0292622
-0.00650856
0.0297255
-0.00584904
0.0301443
-0.0051817
0.0305175
-0.00452705
0.0308439
-0.00389471
0.0311243
-0.00321461
0.0313584
-0.00253064
0.0315459
-0.00184375
0.0316863
-0.00115488
0.0317795
-0.000484866
0.0318256
0.00019677
0.031825
0.000900942
0.0317776
0.001581
0.0316835
0.00223661
0.0315429
0.00286746
0.00347324
0.0313561
0.00809638
-0.0226689
-0.00691881
0.00926922
-0.0219334
0.0104359
-0.0208111
0.0115944
-0.0201118
0.0127395
-0.0192057
0.013873
-0.0187216
0.0149885
-0.0179806
0.0160862
-0.0174201
0.0171658
-0.0169139
0.0182221
-0.0162972
0.0192536
-0.0157284
0.020261
-0.0151943
0.0212423
-0.0146315
0.0221912
-0.0140282
0.0231095
-0.0134545
0.0239962
-0.0128629
0.0248495
-0.0122496
0.0256655
-0.0116343
0.0264431
-0.0110169
0.0271827
-0.0103748
0.0278828
-0.0097171
0.0285421
-0.00904471
0.0291572
-0.00840006
0.0297284
-0.00773054
0.0302556
-0.00703572
0.0307377
-0.00633117
0.031174
-0.00561794
0.031563
-0.00491608
0.0319037
-0.0042354
0.0321968
-0.00350773
0.0324419
-0.00277572
0.0326386
-0.00204043
0.0327866
-0.00130289
0.0328855
-0.000583813
0.0329356
0.000146735
0.032937
0.000899463
0.0328899
0.00162815
0.0327942
0.00233232
0.0326501
0.00301155
0.00366535
0.032458
0.00831047
-0.023891
-0.00708839
0.00952743
-0.0231504
0.0107378
-0.0220215
0.0119395
-0.0213134
0.0131272
-0.0203935
0.0143026
-0.019897
0.0154595
-0.0191376
0.0165978
-0.0185583
0.017717
-0.0180331
0.0188121
-0.0173923
0.0198817
-0.0167979
0.0209259
-0.0162386
0.021943
-0.0156486
0.0229268
-0.015012
0.023879
-0.0144067
0.0247983
-0.0137822
0.0256831
-0.0131343
0.0265293
-0.0124805
0.027336
-0.0118236
0.0281034
-0.0111422
0.02883
-0.0104437
0.0295144
-0.00972911
0.0301533
-0.00903895
0.0307469
-0.00832413
0.0312949
-0.00758373
0.0317963
-0.00683262
0.0322503
-0.00607191
0.0326555
-0.00532125
0.0330107
-0.00459059
0.0333166
-0.00381363
0.0335727
-0.00303185
0.0337786
-0.00224637
0.0339341
-0.00145836
0.0340387
-0.000688371
0.0340924
9.2971e-05
0.0340957
0.000896146
0.0340485
0.00167536
0.0339508
0.00243001
0.0338029
0.00315952
0.00386329
0.0336049
0.00853608
-0.0251596
-0.00726748
0.00979917
-0.0244135
0.0110552
-0.0232776
0.012302
-0.0225602
0.0135345
-0.0216259
0.0147537
-0.0211162
0.0159539
-0.0203378
0.0171346
-0.019739
0.0182953
-0.0191938
0.0194311
-0.0185281
0.0205404
-0.0179072
0.0216232
-0.0173215
0.0226777
-0.0167031
0.0236981
-0.0160324
0.0246857
-0.0153942
0.025639
-0.0147356
0.0265565
-0.0140518
0.0274343
-0.0133583
0.0282713
-0.0126606
0.0290676
-0.0119385
0.0298216
-0.0111977
0.030532
-0.0104395
0.0311955
-0.00970243
0.0318121
-0.00894077
0.0323816
-0.00815321
0.0329029
-0.00735389
0.033375
-0.00654404
0.0337966
-0.0057429
0.0341666
-0.00496055
0.0344855
-0.00413251
0.0347527
-0.00329911
0.034968
-0.0024616
0.0351308
-0.00162123
0.0352409
-0.000798429
0.0352982
3.56519e-05
0.0353031
0.000891231
0.0352556
0.00172294
0.0351555
0.00253005
0.0350032
0.00331183
0.00406755
0.034799
0.00877339
-0.0264768
-0.0074562
0.0100847
-0.0257248
0.0113885
-0.0245814
0.0126824
-0.0238541
0.0139616
-0.0229051
0.0152267
-0.0223812
0.0164721
-0.0215832
0.0176973
-0.0209642
0.0189013
-0.0203979
0.0200796
-0.0197064
0.0212305
-0.0190581
0.0223537
-0.0184447
0.0234473
-0.0177967
0.0245059
-0.017091
0.0255303
-0.0164186
0.0265192
-0.0157245
0.0274709
-0.0150035
0.0283816
-0.014269
0.0292501
-0.0135292
0.0300764
-0.0127648
0.0308589
-0.0119802
0.0315962
-0.0111768
0.0322851
-0.0103913
0.0329256
-0.00958124
0.0335172
-0.00874482
0.0340589
-0.00789558
0.0345497
-0.00703482
0.0349882
-0.00618142
0.0353733
-0.0053456
0.0357054
-0.00446459
0.0359839
-0.00357768
0.0362085
-0.0026862
0.0363788
-0.00179151
0.0364943
-0.00091391
0.036555
-2.50738e-05
0.0365613
0.000884941
0.036513
0.00177119
0.0364103
0.00263279
0.0362532
0.0034689
0.00427861
0.0360422
0.00902265
-0.0278447
-0.00765475
0.0103842
-0.0270864
0.011738
-0.0259352
0.0130811
-0.0251972
0.0144091
-0.024233
0.015722
-0.0236942
0.0170148
-0.022876
0.0182863
-0.0222357
0.0195357
-0.0216472
0.0207584
-0.0209291
0.0219527
-0.0202524
0.0231181
-0.0196101
0.0242527
-0.0189313
0.0253511
-0.0181894
0.026414
-0.0174815
0.02744
-0.0167505
0.0284273
-0.0159907
0.0293722
-0.015214
0.0302736
-0.0144306
0.0311312
-0.0136223
0.0319433
-0.0127923
0.0327085
-0.011942
0.0334238
-0.0111066
0.0340889
-0.0102464
0.0347034
-0.00935931
0.0352662
-0.00845832
0.0357762
-0.00754481
0.036232
-0.0066373
0.0366325
-0.00574611
0.0369781
-0.00481017
0.0372682
-0.00386775
0.0375023
-0.00292028
0.03768
-0.00196922
0.0378008
-0.00103476
0.0378648
-8.90813e-05
0.0378723
0.000877479
0.0378231
0.00182038
0.0377173
0.0027386
0.037555
0.00363116
0.004497
0.0373366
0.00928413
-0.0292655
-0.00786333
0.0106982
-0.0285005
0.012104
-0.0273409
0.0134986
-0.0265918
0.0148774
-0.0256119
0.0162404
-0.0250572
0.0175825
-0.024218
0.0189025
-0.0235557
0.0201992
-0.022944
0.0214683
-0.0221982
0.0227079
-0.021492
0.0239174
-0.0208196
0.0250947
-0.0201086
0.0262347
-0.0193294
0.0273378
-0.0185846
0.0284025
-0.0178152
0.0294269
-0.0170152
0.0304076
-0.0161947
0.0313432
-0.0153662
0.0322332
-0.0145124
0.0330761
-0.0136352
0.0338704
-0.0127363
0.034613
-0.0118492
0.0353037
-0.0109371
0.0359419
-0.00999748
0.0365264
-0.00904282
0.0370562
-0.00807461
0.0375299
-0.00711102
0.0379463
-0.0061625
0.0383057
-0.00516958
0.0386075
-0.00416956
0.0388512
-0.00316399
0.0390365
-0.00215444
0.0391627
-0.00116097
0.0392298
-0.000156268
0.0392383
0.000869031
0.0391879
0.00187078
0.0390787
0.00284783
0.0389108
0.00379904
0.00472321
0.0386846
0.00955816
-0.0307415
-0.00808219
0.011027
-0.0299693
0.0124871
-0.028801
0.0139353
-0.02804
0.0153673
-0.0270439
0.0167825
-0.0264724
0.0181761
-0.0256116
0.0195466
-0.0249262
0.0208928
-0.0242901
0.0222103
-0.0235158
0.0234972
-0.0227789
0.0247527
-0.022075
0.0259745
-0.0213304
0.0271579
-0.0205128
0.0283029
-0.0197296
0.0294079
-0.0189202
0.0304711
-0.0180783
0.031489
-0.0172125
0.0324602
-0.0163374
0.0333841
-0.0154362
0.034259
-0.0145102
0.0350835
-0.0135607
0.0358545
-0.0126203
0.0365717
-0.0116543
0.0372344
-0.0106602
0.0378415
-0.00964985
0.0383917
-0.00862489
0.0388839
-0.00760318
0.0393166
-0.00659524
0.0396902
-0.00554318
0.0400041
-0.00448338
0.0402576
-0.00341752
0.0404504
-0.00234725
0.040582
-0.00129254
0.0406523
-0.000226551
0.0406615
0.000859769
0.0406096
0.00192266
0.0404967
0.00296082
0.0403227
0.00397297
0.00495775
0.0400882
0.00984508
-0.032275
-0.00831159
0.011371
-0.0314952
0.0128877
-0.0303177
0.0143919
-0.0295442
0.0158793
-0.0285313
0.0173489
-0.0279421
0.0187962
-0.0270589
0.0202195
-0.0263495
0.0216172
-0.0256879
0.0229853
-0.0248838
0.0243215
-0.0241152
0.0256249
-0.0233785
0.0268933
-0.0225988
0.0281219
-0.0217414
0.0293106
-0.0209183
0.0304578
-0.0200674
0.0315614
-0.0191819
0.032618
-0.0182692
0.0336263
-0.0173456
0.0345854
-0.0163953
0.0354937
-0.0154185
0.0363495
-0.0144166
0.0371501
-0.0134208
0.0378948
-0.012399
0.0385829
-0.0113483
0.0392133
-0.0102802
0.0397848
-0.00919637
0.040296
-0.00811437
0.0407456
-0.00704485
0.0411338
-0.0059314
0.04146
-0.00480955
0.0417235
-0.00368108
0.0419241
-0.00254778
0.042061
-0.00142949
0.0421343
-0.000299866
0.0421443
0.000849847
0.0420907
0.00197625
0.0419736
0.00307791
0.0417932
0.00415338
0.00520114
0.0415498
0.0101453
-0.0338684
-0.00855184
0.0117307
-0.0330807
0.0133064
-0.0318934
0.0148689
-0.0311067
0.0164141
-0.0300764
0.0179405
-0.0294686
0.0194438
-0.0285622
0.0209221
-0.0278277
0.0223736
-0.0271394
0.0237943
-0.0263045
0.025182
-0.0255029
0.0265355
-0.0247319
0.0278524
-0.0239158
0.0291282
-0.0230171
0.0303624
-0.0221526
0.0315535
-0.0212584
0.0326992
-0.0203276
0.0337962
-0.0193663
0.0348431
-0.0183924
0.0358388
-0.0173911
0.0367818
-0.0163615
0.0376703
-0.0153051
0.0385016
-0.0142521
0.0392749
-0.0131723
0.0399894
-0.0120629
0.040644
-0.0109348
0.0412374
-0.0097898
0.0417683
-0.00864526
0.0422353
-0.00751189
0.0426386
-0.00633469
0.0429775
-0.00514841
0.0432514
-0.00395494
0.0434598
-0.00275618
0.0436021
-0.00157188
0.0436784
-0.000376169
0.0436889
0.00083941
0.0436333
0.0020318
0.0435118
0.00319943
0.0433245
0.00434069
0.0054539
0.0430717
0.0104591
-0.0355243
-0.00880327
0.0121066
-0.0347281
0.0137438
-0.0335306
0.0153671
-0.0327301
0.0169724
-0.0316817
0.0185581
-0.0310543
0.0201198
-0.0301238
0.0216553
-0.0293633
0.023163
-0.0286471
0.0246386
-0.0277802
0.02608
-0.0269442
0.0274856
-0.0261375
0.0288531
-0.0252833
0.030178
-0.0243421
0.0314598
-0.0234344
0.0326965
-0.0224951
0.0338861
-0.0215172
0.0350253
-0.0205054
0.0361123
-0.0194795
0.0371463
-0.0184251
0.0381254
-0.0173405
0.0390479
-0.0162277
0.039911
-0.0151152
0.040714
-0.0139753
0.041456
-0.0128049
0.0421357
-0.0116145
0.0427519
-0.010406
0.0433032
-0.00919655
0.0437882
-0.00799695
0.0442071
-0.00675355
0.044559
-0.00550035
0.0448434
-0.00423937
0.0450599
-0.00297263
0.0452078
-0.00171978
0.045287
-0.000455429
0.0452979
0.000828588
0.0452401
0.00208954
0.0451138
0.00332571
0.0449192
0.00453534
0.00571657
0.0446565
0.0107872
-0.0372452
-0.00906622
0.0124992
-0.0364402
0.0142005
-0.0352319
0.0158872
-0.0344168
0.0175552
-0.0333497
0.0192026
-0.0327017
0.0208251
-0.0317463
0.0224204