/*--------------------------------*- C++ -*----------------------------------*\
| =========                 |                                                 |
| \\      /  F ield         | OpenFOAM: The Open Source CFD Toolbox           |
|  \\    /   O peration     | Version:  3.0.1                                 |
|   \\  /    A nd           | Web:      www.OpenFOAM.org                      |
|    \\/     M anipulation  |                                                 |
\*---------------------------------------------------------------------------*/
FoamFile
{
    version     2.0;
    format      ascii;
    class       volVectorField;
    location    "500";
    object      U;
}
// * * * * * * * * * * * * * * * * * * * * * * * * * * * * * * * * * * * * * //

dimensions      [0 1 -1 0 0 0 0];

internalField   nonuniform List<vector> 
58000
(
(0.446504 1.05796 1.36527e-21)
(0.599996 1.16197 -3.13356e-21)
(0.743794 1.17793 3.38573e-20)
(0.859451 1.12832 -5.80482e-20)
(0.946833 1.04577 2.11706e-20)
(1.0079 0.945887 1.74498e-20)
(1.05354 0.843368 0)
(1.08484 0.747165 -2.26085e-20)
(1.10551 0.65521 5.44197e-20)
(1.12062 0.572595 1.50653e-20)
(1.13154 0.502459 -3.53559e-20)
(1.13863 0.441522 0)
(1.14252 0.387372 0)
(1.14769 0.342992 1.48921e-20)
(1.14962 0.306757 0)
(1.14931 0.276141 -1.33511e-19)
(1.14725 0.249936 1.32205e-19)
(1.14469 0.227864 -1.41075e-20)
(1.14161 0.209537 1.07956e-19)
(1.13764 0.193667 -1.071e-19)
(1.13323 0.17943 -1.01905e-19)
(1.12812 0.166213 1.01084e-19)
(1.12325 0.154222 0)
(1.11806 0.143476 9.34603e-20)
(1.11243 0.133527 -9.29554e-20)
(1.10652 0.124098 8.91655e-20)
(1.10028 0.115034 3.84101e-21)
(1.09377 0.106321 -8.68326e-20)
(1.08745 0.098268 0)
(1.08067 0.0908098 5.07821e-21)
(1.07354 0.0837185 -4.51565e-20)
(1.06612 0.0770249 8.46946e-20)
(1.05782 0.0707609 -7.44447e-22)
(1.0491 0.0650393 -3.65485e-20)
(1.03891 0.0596649 -1.76459e-20)
(1.02631 0.0545151 1.89832e-20)
(1.01244 0.049704 1.16333e-21)
(0.999269 0.0454052 1.14184e-21)
(0.987219 0.0414273 -3.41908e-21)
(0.981177 0.0383748 5.90337e-21)
(0.631487 0.615301 -2.47359e-21)
(0.743808 0.67352 4.83144e-21)
(0.849271 0.713862 0)
(0.949691 0.747131 -1.68566e-21)
(1.04226 0.767098 -8.91354e-21)
(1.12626 0.769996 -2.57718e-22)
(1.19816 0.756467 8.83972e-21)
(1.25596 0.73195 1.60917e-20)
(1.30323 0.697191 -1.71599e-20)
(1.3387 0.655587 0)
(1.36281 0.612382 4.78149e-20)
(1.37843 0.567957 -1.37917e-19)
(1.38668 0.5221 -1.29085e-21)
(1.38796 0.479461 6.94997e-21)
(1.3853 0.441248 1.49038e-19)
(1.37972 0.40519 -9.29094e-20)
(1.37179 0.371086 6.44894e-20)
(1.36263 0.340275 -1.47532e-19)
(1.35311 0.313331 -7.52842e-21)
(1.3432 0.288928 7.22323e-20)
(1.33295 0.266242 8.53359e-21)
(1.32245 0.245057 0)
(1.31234 0.225984 0)
(1.30272 0.209029 0)
(1.2932 0.193321 0)
(1.28369 0.178486 7.21416e-20)
(1.27419 0.164433 -6.44665e-20)
(1.26481 0.151258 0)
(1.25588 0.139301 3.44164e-20)
(1.24718 0.128309 -6.76561e-22)
(1.23851 0.117884 -2.65428e-20)
(1.22982 0.108025 -3.776e-21)
(1.22147 0.0987342 2.54842e-20)
(1.21355 0.090061 -3.09924e-20)
(1.2063 0.08197 0)
(1.19923 0.0744535 -1.72205e-21)
(1.19212 0.0675357 1.70029e-21)
(1.18522 0.0612622 -8.63783e-22)
(1.17869 0.0552839 -3.35943e-21)
(1.17272 0.0498197 3.48532e-21)
(0.649511 0.559611 4.414e-22)
(0.701868 0.608795 0)
(0.761649 0.646046 0)
(0.827547 0.673152 -1.53294e-21)
(0.894339 0.689362 -8.78155e-21)
(0.961349 0.696009 1.34075e-20)
(1.02588 0.693751 -1.10269e-20)
(1.08461 0.682692 -1.48725e-20)
(1.14005 0.663771 1.52848e-20)
(1.18851 0.638666 0)
(1.22796 0.609313 0)
(1.26089 0.576349 -9.9609e-21)
(1.28817 0.540415 4.75556e-20)
(1.3079 0.504872 -9.08162e-22)
(1.32163 0.470673 -4.96427e-20)
(1.33115 0.437042 1.36155e-20)
(1.33698 0.404391 6.38971e-20)
(1.33946 0.37415 -1.25899e-20)
(1.33937 0.346978 -4.50474e-20)
(1.33746 0.321896 -3.87755e-20)
(1.33413 0.298342 4.48951e-20)
(1.32965 0.276231 1.22666e-20)
(1.32444 0.256199 0)
(1.31882 0.238207 0)
(1.3128 0.22145 -5.96529e-21)
(1.30639 0.205619 -5.45239e-20)
(1.29968 0.19064 4.85913e-20)
(1.29278 0.176607 -5.80574e-21)
(1.28594 0.163798 -3.00331e-21)
(1.27912 0.151903 -2.96783e-21)
(1.27214 0.140526 0)
(1.26504 0.129608 0)
(1.25782 0.119089 -1.95559e-20)
(1.25059 0.109078 2.25511e-20)
(1.24348 0.0997146 2.70681e-21)
(1.23637 0.0909611 5.17829e-23)
(1.22926 0.0827815 -1.37722e-21)
(1.22235 0.0751953 0)
(1.21574 0.0680369 2.65013e-21)
(1.20953 0.0611356 -2.79306e-21)
(0.718683 0.482196 1.03502e-21)
(0.754701 0.51807 -1.02056e-21)
(0.79346 0.549347 0)
(0.835898 0.576386 4.55092e-22)
(0.881296 0.596166 3.09821e-21)
(0.928872 0.60909 -3.0002e-21)
(0.977376 0.614811 -7.17283e-22)
(1.02385 0.613487 -7.66628e-21)
(1.06967 0.605901 3.43374e-22)
(1.11256 0.592621 0)
(1.15024 0.574845 -5.42946e-21)
(1.18389 0.55317 4.22265e-20)
(1.21404 0.527971 -2.88846e-20)
(1.23849 0.501447 -8.8122e-21)
(1.25768 0.474493 0)
(1.27317 0.446817 2.72684e-20)
(1.28529 0.418825 -4.55832e-20)
(1.29385 0.391831 -2.72589e-20)
(1.29928 0.366637 4.61198e-20)
(1.30245 0.3427 -9.85206e-21)
(1.30386 0.319722 9.08307e-21)
(1.30376 0.297764 -9.86159e-21)
(1.30236 0.277528 -3.76756e-20)
(1.30001 0.259069 3.78358e-20)
(1.29693 0.241711 -4.2404e-21)
(1.29323 0.225208 4.53656e-21)
(1.28901 0.209515 0)
(1.28438 0.194749 4.74246e-21)
(1.27954 0.181195 0)
(1.27452 0.168562 4.43322e-21)
(1.26925 0.156479 -1.79863e-20)
(1.26378 0.144916 1.81978e-20)
(1.25811 0.13384 1.775e-20)
(1.25232 0.123349 -2.448e-21)
(1.24651 0.113543 -1.99217e-20)
(1.24062 0.104267 9.73061e-21)
(1.23459 0.095394 -8.71175e-21)
(1.22852 0.0869517 0)
(1.22252 0.0789017 1.04779e-21)
(1.21666 0.0712066 0)
(0.755232 0.438428 2.32656e-21)
(0.780609 0.466419 -7.18774e-22)
(0.808295 0.492116 -1.09867e-21)
(0.839016 0.515999 3.02512e-22)
(0.872662 0.535533 0)
(0.908978 0.550611 -9.24075e-22)
(0.947276 0.560435 0)
(0.985362 0.564384 -3.13021e-21)
(1.02418 0.563227 6.01325e-21)
(1.06189 0.557004 5.53268e-21)
(1.09643 0.5462 4.32512e-21)
(1.12858 0.531443 -4.91964e-21)
(1.15865 0.513119 2.03214e-20)
(1.18443 0.492659 -2.56873e-20)
(1.20589 0.470846 0)
(1.22436 0.447696 6.6304e-21)
(1.23996 0.423591 0)
(1.25223 0.399655 -6.25875e-21)
(1.26132 0.376685 -7.8908e-22)
(1.26803 0.354382 -2.79057e-20)
(1.27285 0.332592 -1.43043e-20)
(1.27595 0.311444 2.08133e-23)
(1.27746 0.291655 2.19717e-20)
(1.27767 0.273359 -2.87976e-20)
(1.2769 0.256006 3.66203e-20)
(1.27532 0.239399 3.22495e-20)
(1.27304 0.223521 -2.93007e-20)
(1.27016 0.208507 -2.18358e-20)
(1.26686 0.194645 2.91292e-20)
(1.26322 0.181668 -3.23752e-20)
(1.25923 0.169227 2.9054e-20)
(1.25494 0.157295 3.51717e-21)
(1.25038 0.145843 0)
(1.24561 0.134969 -1.23128e-20)
(1.24076 0.12478 2.0771e-22)
(1.23579 0.115109 1.41439e-20)
(1.23065 0.105809 -6.93913e-21)
(1.22539 0.0969063 7.02246e-21)
(1.22006 0.0883948 -4.33139e-21)
(1.21472 0.0802736 3.68848e-21)
(0.788047 0.403168 -2.22581e-21)
(0.807652 0.425338 1.90459e-21)
(0.828489 0.446231 3.47328e-24)
(0.851338 0.466479 -7.65997e-22)
(0.876635 0.484135 -8.08125e-23)
(0.904391 0.499135 8.52672e-22)
(0.934467 0.510579 6.38091e-22)
(0.965267 0.517577 -3.94973e-21)
(0.997506 0.520716 5.02527e-21)
(1.02983 0.519608 -1.30771e-20)
(1.06045 0.51427 8.7425e-21)
(1.08984 0.505247 1.20168e-20)
(1.11819 0.492838 -1.81978e-20)
(1.14346 0.477834 4.07143e-21)
(1.16534 0.460896 7.36102e-21)
(1.18493 0.442214 1.77523e-20)
(1.2022 0.422118 -1.80604e-20)
(1.21657 0.40152 5.21775e-21)
(1.22794 0.381161 1.9763e-20)
(1.23705 0.360934 -2.06654e-20)
(1.24429 0.340792 5.67382e-21)
(1.2498 0.320912 2.19944e-20)
(1.25355 0.30199 -1.63993e-20)
(1.25581 0.284227 -5.38988e-21)
(1.25694 0.267194 -2.26608e-20)
(1.25713 0.250755 3.9911e-20)
(1.25648 0.234922 -2.31646e-20)
(1.25509 0.219853 -3.81664e-22)
(1.25311 0.205841 2.30509e-20)
(1.25064 0.192656 -4.63286e-20)
(1.24774 0.179979 2.62137e-20)
(1.24445 0.167795 -2.62017e-20)
(1.24081 0.156082 9.03312e-21)
(1.2369 0.144938 2.31767e-20)
(1.23281 0.134468 -1.16101e-20)
(1.22856 0.124507 -1.13962e-20)
(1.22409 0.114901 1.15383e-20)
(1.21946 0.105674 5.67545e-21)
(1.21467 0.0968341 -5.05119e-21)
(1.20979 0.0884018 0)
(0.812965 0.376135 6.11394e-22)
(0.828867 0.394171 -1.22004e-21)
(0.84554 0.411367 1.25063e-21)
(0.863572 0.428354 0)
(0.883454 0.443692 0)
(0.905334 0.45742 0)
(0.929342 0.468789 2.11723e-21)
(0.954393 0.476889 1.22488e-22)
(0.9811 0.482218 -1.43344e-21)
(1.00852 0.484198 2.16928e-21)
(1.03521 0.482533 0)
(1.06147 0.477654 3.41896e-21)
(1.08744 0.469782 5.00656e-21)
(1.11131 0.459209 0)
(1.13265 0.446439 -1.14807e-20)
(1.15231 0.431748 -1.28838e-20)
(1.17021 0.415396 1.31164e-20)
(1.18566 0.39808 -1.46977e-20)
(1.19845 0.380447 1.08308e-20)
(1.20917 0.362519 7.47315e-21)
(1.21816 0.344325 -8.81168e-21)
(1.22548 0.326056 -2.47781e-22)
(1.23101 0.30836 1.31339e-20)
(1.23495 0.291483 3.97801e-22)
(1.23769 0.27511 0)
(1.2394 0.259158 0)
(1.24018 0.243665 -1.84527e-20)
(1.24011 0.228804 3.68775e-20)
(1.2393 0.214872 -1.42463e-20)
(1.2379 0.201683 0)
(1.23598 0.188952 -2.13026e-20)
(1.2336 0.176673 1.86821e-22)
(1.2308 0.164836 2.16641e-20)
(1.22765 0.153539 -9.47611e-21)
(1.22425 0.142889 1.18819e-20)
(1.22062 0.132729 9.42238e-21)
(1.21674 0.122912 -9.54562e-21)
(1.21263 0.11346 0)
(1.20833 0.104392 -2.95915e-21)
(1.20387 0.0957362 2.21893e-21)
(0.833535 0.354093 -9.60153e-22)
(0.84689 0.369064 1.21641e-21)
(0.860723 0.383418 0)
(0.875492 0.397734 0)
(0.891659 0.410917 2.57806e-22)
(0.909395 0.423076 -2.58685e-22)
(0.928935 0.433634 -7.70621e-22)
(0.949537 0.441787 -5.28309e-22)
(0.971737 0.447982 1.47357e-21)
(0.994915 0.451614 -4.45163e-22)
(1.01794 0.45224 0)
(1.04103 0.450192 -2.96552e-21)
(1.06432 0.445624 9.57421e-21)
(1.08628 0.438488 -1.02538e-20)
(1.10643 0.429137 7.29491e-22)
(1.12543 0.417865 0)
(1.14316 0.404857 0)
(1.15892 0.390604 5.08351e-21)
(1.17241 0.375643 1.80974e-20)
(1.18408 0.360075 -4.9342e-20)
(1.19422 0.343968 1.83827e-20)
(1.20283 0.327512 6.30577e-21)
(1.20972 0.311285 3.61036e-21)
(1.21501 0.295553 1.10751e-20)
(1.21908 0.280102 -1.4295e-20)
(1.22209 0.264891 7.65532e-21)
(1.22412 0.249982 -3.56758e-21)
(1.22522 0.235554 -2.26889e-20)
(1.22549 0.221908 -7.6533e-21)
(1.22507 0.208897 0)
(1.22408 0.196278 0)
(1.22255 0.184054 -1.56773e-20)
(1.22054 0.172226 1.20436e-20)
(1.21812 0.160896 1.9235e-21)
(1.21537 0.150171 5.83801e-21)
(1.21233 0.13991 -7.95145e-21)
(1.209 0.129973 9.65397e-22)
(1.2054 0.120387 0)
(1.20155 0.111173 4.84444e-22)
(1.1975 0.102362 2.69156e-22)
(0.850534 0.335764 -7.64315e-23)
(0.86204 0.348403 1.32918e-24)
(0.873858 0.36055 1.27507e-21)
(0.886346 0.372717 6.05765e-22)
(0.899898 0.384049 3.96266e-22)
(0.914678 0.394684 2.54919e-23)
(0.930939 0.404189 2.52428e-22)
(0.948162 0.411888 5.22804e-22)
(0.966811 0.418191 -8.78147e-22)
(0.986487 0.422542 -1.27771e-21)
(1.00632 0.424461 4.64974e-21)
(1.02649 0.424208 -1.00182e-21)
(1.04714 0.421899 -6.68695e-21)
(1.06701 0.417278 1.18648e-20)
(1.08562 0.410573 -8.20264e-21)
(1.10351 0.402064 1.11467e-20)
(1.12054 0.391869 -2.3809e-21)
(1.13605 0.380307 -3.76128e-20)
(1.14967 0.367798 2.63023e-20)
(1.16176 0.35448 -5.05649e-21)
(1.17255 0.34044 0)
(1.18199 0.32585 1.07265e-20)
(1.18983 0.311203 -1.63719e-20)
(1.19613 0.296771 -1.67603e-20)
(1.20125 0.282419 2.30072e-20)
(1.20532 0.268138 -1.76889e-20)
(1.2084 0.254003 2.74514e-20)
(1.21053 0.240199 3.22411e-21)
(1.21175 0.227017 3.2674e-21)
(1.21223 0.214353 -3.07578e-21)
(1.21209 0.202001 0)
(1.21136 0.189977 -3.1718e-21)
(1.21011 0.178291 3.40981e-21)
(1.20838 0.167046 8.27249e-21)
(1.20626 0.156356 -1.17253e-20)
(1.2038 0.146091 8.23676e-21)
(1.201 0.136127 -7.56849e-21)
(1.19788 0.126491 0)
(1.19449 0.117208 -1.69003e-21)
(1.19084 0.108311 1.78207e-21)
(0.864869 0.320186 0)
(0.874967 0.331003 -1.72726e-21)
(0.885278 0.341408 -1.40796e-21)
(0.896085 0.351846 -6.268e-22)
(0.907719 0.361631 -4.56258e-22)
(0.920326 0.370911 0)
(0.934141 0.379354 -7.76417e-23)
(0.948787 0.386403 -3.07912e-22)
(0.964665 0.392435 -1.3337e-22)
(0.981511 0.396966 -4.12461e-22)
(0.998663 0.399535 -7.57187e-22)
(1.01627 0.400354 6.51638e-21)
(1.03449 0.399515 3.10372e-21)
(1.05231 0.396663 2.21086e-21)
(1.06927 0.391929 -2.15033e-21)
(1.08583 0.385566 4.01554e-22)
(1.10185 0.377641 5.90894e-21)
(1.11673 0.368338 0)
(1.13008 0.357969 -1.47787e-20)
(1.14218 0.346686 1.10173e-20)
(1.15319 0.334574 0)
(1.16306 0.321781 2.54879e-20)
(1.17149 0.308716 -2.19537e-20)
(1.17849 0.295638 4.35247e-21)
(1.18438 0.282472 1.9022e-20)
(1.18927 0.269229 -1.46672e-20)
(1.1932 0.255994 0)
(1.19618 0.242946 0)
(1.19823 0.230364 -5.03223e-21)
(1.1995 0.21818 2.75193e-21)
(1.20011 0.206225 1.07872e-20)
(1.20012 0.194524 -8.14041e-21)
(1.19956 0.183096 0)
(1.19848 0.172046 1.73567e-22)
(1.19696 0.161489 -9.77245e-21)
(1.19505 0.151314 5.57274e-21)
(1.19277 0.141409 0)
(1.19014 0.131803 -2.83209e-21)
(1.18719 0.122524 1.80941e-21)
(1.18395 0.113606 -1.83152e-22)
(0.877098 0.306734 5.43602e-22)
(0.886088 0.316097 4.61617e-22)
(0.895231 0.325102 6.18908e-22)
(0.904753 0.334137 9.24108e-23)
(0.914932 0.342639 6.46406e-23)
(0.925893 0.35075 0)
(0.937844 0.358214 -1.97362e-22)
(0.950502 0.364571 -7.78786e-22)
(0.964207 0.370165 4.37791e-22)
(0.978783 0.374584 -3.45415e-22)
(0.99372 0.37741 -8.91401e-22)
(1.00915 0.378823 -4.95163e-21)
(1.02524 0.378903 -3.73024e-21)
(1.04115 0.377255 2.84085e-21)
(1.05651 0.373949 1.94109e-21)
(1.07168 0.369206 -6.38433e-21)
(1.08654 0.363056 1.95665e-21)
(1.10057 0.355587 -4.78802e-21)
(1.11338 0.347022 2.26701e-21)
(1.12519 0.337507 -1.47151e-20)
(1.13612 0.327119 1.24697e-20)
(1.1461 0.315979 -1.41881e-20)
(1.15481 0.304416 1.40342e-20)
(1.16224 0.292667 -1.90094e-20)
(1.16864 0.280698 1.90179e-20)
(1.17412 0.268534 -2.04315e-20)
(1.17869 0.256261 -2.42743e-22)
(1.18235 0.244048 2.10269e-20)
(1.18507 0.232157 -4.20846e-21)
(1.18701 0.220549 8.86433e-21)
(1.18829 0.209089 -4.38767e-21)
(1.18894 0.197808 0)
(1.18901 0.186733 0)
(1.18853 0.175969 2.45139e-21)
(1.18756 0.165632 -4.61907e-21)
(1.18618 0.155628 -1.21004e-21)
(1.18439 0.14586 3.48175e-23)
(1.18222 0.136357 4.88933e-21)
(1.17971 0.12715 6.29718e-22)
(1.17687 0.118272 1.64933e-22)
(0.887648 0.294965 -1.67365e-22)
(0.895742 0.303146 6.35321e-22)
(0.903949 0.31101 -4.78721e-22)
(0.912457 0.318893 -4.19107e-22)
(0.921497 0.326326 -4.33918e-22)
(0.931175 0.333441 5.34102e-23)
(0.941672 0.340037 -1.55069e-22)
(0.952768 0.34573 -3.81705e-22)
(0.96475 0.35083 -1.04636e-22)
(0.977499 0.354993 2.09383e-21)
(0.990616 0.357848 -2.13156e-21)
(1.00422 0.359551 -3.25173e-21)
(1.01846 0.360176 -1.86485e-21)
(1.03268 0.359329 3.55764e-22)
(1.04655 0.357037 0)
(1.06037 0.353494 0)
(1.07405 0.348706 1.5013e-20)
(1.08712 0.342695 4.1062e-22)
(1.09924 0.335612 -5.35683e-22)
(1.11057 0.327593 5.13024e-21)
(1.1212 0.318701 1.06602e-20)
(1.13105 0.30903 -1.37288e-20)
(1.13982 0.298841 -6.34095e-21)
(1.14743 0.288343 -3.8773e-22)
(1.15414 0.277529 -3.71285e-21)
(1.16001 0.266431 1.32138e-20)
(1.16503 0.25513 0)
(1.16919 0.243784 -2.89987e-22)
(1.17244 0.232633 0)
(1.17493 0.221661 -3.62086e-21)
(1.17676 0.210761 3.99071e-21)
(1.17796 0.19997 -7.86686e-21)
(1.17858 0.18932 1.1878e-20)
(1.17862 0.178913 -1.00584e-20)
(1.17816 0.168867 1.22857e-20)
(1.17726 0.159103 -4.10923e-21)
(1.17593 0.149535 1.03307e-21)
(1.17421 0.140198 4.20268e-21)
(1.1721 0.131122 -1.04972e-21)
(1.16966 0.122341 9.71922e-22)
(0.896832 0.284556 -2.81927e-22)
(0.904183 0.291762 -2.79206e-22)
(0.911624 0.298682 -3.68893e-22)
(0.919309 0.305609 7.69892e-22)
(0.927432 0.312146 1.53402e-21)
(0.936085 0.318414 -5.63028e-22)
(0.945422 0.324251 0)
(0.955268 0.329335 -1.48337e-22)
(0.965867 0.333945 8.33278e-22)
(0.977132 0.33779 0)
(0.988749 0.340547 9.12083e-22)
(1.00083 0.342355 2.57536e-21)
(1.0135 0.343281 3.71226e-21)
(1.02623 0.342951 -1.48091e-21)
(1.03875 0.341371 -2.68676e-21)
(1.05131 0.338707 7.36816e-21)
(1.06384 0.33495 3.04568e-21)
(1.07595 0.330081 -1.29498e-20)
(1.0873 0.324198 -4.1676e-22)
(1.09804 0.31742 -3.75024e-21)
(1.10824 0.309798 8.77392e-21)
(1.1178 0.301405 -4.53565e-21)
(1.12644 0.29244 -5.11914e-21)
(1.13407 0.283085 1.03898e-20)
(1.1409 0.273349 -1.56766e-20)
(1.14697 0.263266 0)
(1.15228 0.252912 1.1772e-20)
(1.15679 0.242427 -1.50751e-20)
(1.16045 0.23203 0)
(1.16336 0.221723 3.3148e-21)
(1.16563 0.21142 -6.56808e-21)
(1.16729 0.201162 6.68708e-21)
(1.16837 0.190985 -3.54992e-21)
(1.16888 0.180989 1.79975e-21)
(1.16886 0.171286 -1.12363e-22)
(1.16839 0.161816 -5.26789e-21)
(1.16748 0.152503 2.66852e-21)
(1.16616 0.143383 1.8052e-21)
(1.16444 0.134489 -2.74061e-21)
(1.16237 0.125853 1.19022e-21)
(0.90489 0.275268 -2.59888e-22)
(0.911615 0.281658 -6.38085e-22)
(0.918414 0.287786 1.16278e-21)
(0.925416 0.293911 -5.9932e-22)
(0.932786 0.299693 -4.3209e-22)
(0.940601 0.305238 4.15204e-22)
(0.948993 0.310417 -1.34356e-22)
(0.957819 0.314955 2.23085e-22)
(0.967288 0.319102 -3.52893e-22)
(0.977336 0.322613 -1.32521e-21)
(0.987708 0.325207 4.98457e-22)
(0.9985 0.327006 -1.10869e-21)
(1.00983 0.328076 3.00348e-21)
(1.02128 0.328073 5.02052e-22)
(1.0326 0.326985 -3.66427e-21)
(1.04402 0.324959 2.24164e-21)
(1.05548 0.321978 2.80743e-21)
(1.06665 0.317997 -2.28985e-21)
(1.07722 0.313075 -3.17429e-21)
(1.08732 0.307316 3.45529e-21)
(1.097 0.30076 -3.37881e-21)
(1.10616 0.293459 -4.00747e-21)
(1.11455 0.285565 -8.2919e-21)
(1.12207 0.277233 1.24977e-20)
(1.12888 0.26848 4.72647e-21)
(1.13504 0.259341 -4.54059e-21)
(1.1405 0.249881 9.97909e-21)
(1.14523 0.240227 -1.0116e-20)
(1.14916 0.230574 0)
(1.15238 0.220935 -1.09511e-20)
(1.155 0.211243 1.11437e-20)
(1.15703 0.20154 -5.77655e-21)
(1.15848 0.191865 8.72854e-21)
(1.15937 0.182312 8.91623e-21)
(1.15974 0.172991 -7.6523e-21)
(1.15965 0.163853 1.58831e-21)
(1.15912 0.154836 0)
(1.15816 0.145974 -3.13728e-21)
(1.1568 0.137302 2.79677e-21)
(1.15506 0.128852 -5.58302e-23)
(0.912008 0.266917 4.71114e-22)
(0.918197 0.272615 3.43619e-22)
(0.924449 0.278074 2.56256e-22)
(0.930874 0.283519 0)
(0.937611 0.288657 0)
(0.944728 0.293583 0)
(0.952336 0.29819 1.3279e-23)
(0.960317 0.302245 -1.17358e-22)
(0.96885 0.305968 0)
(0.977886 0.309151 4.26699e-22)
(0.987214 0.311552 0)
(0.996923 0.313281 -1.90375e-21)
(1.00712 0.314396 3.06042e-21)
(1.01745 0.314588 -1.23904e-21)
(1.02772 0.313837 -1.62459e-21)
(1.03812 0.312273 0)
(1.0486 0.309874 -4.45055e-21)
(1.05887 0.30658 4.29856e-21)
(1.06869 0.302425 5.18754e-21)
(1.07813 0.297497 -5.25694e-21)
(1.08725 0.291826 5.96538e-21)
(1.09596 0.28545 3.05415e-21)
(1.10403 0.278483 -6.99663e-21)
(1.11133 0.271052 6.75554e-21)
(1.11803 0.263183 -1.14378e-20)
(1.12415 0.254904 8.35123e-23)
(1.12966 0.246274 1.23207e-20)
(1.1345 0.237403 8.83181e-21)
(1.1386 0.228464 -2.2483e-20)
(1.14204 0.219478 1.8681e-20)
(1.14491 0.210393 2.45147e-21)
(1.14722 0.20125 -7.47416e-21)
(1.14897 0.192088 -2.6397e-21)
(1.15019 0.182996 -2.6934e-21)
(1.15088 0.174081 0)
(1.15111 0.165303 1.29693e-21)
(1.1509 0.156611 1.31521e-21)
(1.15027 0.148038 0)
(1.14922 0.13962 6.93873e-22)
(1.1478 0.131388 -4.59651e-23)
(0.918333 0.259357 2.95422e-22)
(0.924056 0.264465 7.99422e-22)
(0.929836 0.269351 -5.66125e-22)
(0.935765 0.274215 -4.08927e-22)
(0.941963 0.278801 0)
(0.948487 0.283194 0)
(0.955434 0.287304 0)
(0.962704 0.290931 0)
(0.97045 0.294271 -5.90592e-22)
(0.978633 0.297145 -1.60182e-22)
(0.98708 0.299345 0)
(0.995867 0.300968 -1.59696e-21)
(1.00509 0.302068 1.61318e-21)
(1.01446 0.302368 3.52085e-21)
(1.0238 0.301846 -5.12963e-21)
(1.03328 0.300614 2.78373e-21)
(1.04288 0.298651 -1.78252e-21)
(1.05233 0.29589 1.81357e-21)
(1.06142 0.292346 -4.37529e-21)
(1.07023 0.288093 2.22916e-21)
(1.07879 0.283156 -2.63937e-21)
(1.08702 0.277559 -2.8413e-21)
(1.0947 0.271385 0)
(1.10174 0.264743 -6.18706e-21)
(1.10826 0.257658 3.40899e-21)
(1.11426 0.250154 3.5886e-21)
(1.11972 0.242282 -2.9126e-22)
(1.12459 0.234137 3.61597e-21)
(1.12878 0.225872 7.82555e-21)
(1.13235 0.217513 -3.893e-21)
(1.1354 0.209017 -2.16529e-21)
(1.13791 0.200425 -1.51447e-22)
(1.1399 0.191775 8.8763e-21)
(1.14136 0.183151 -9.0212e-21)
(1.14232 0.174652 0)
(1.14283 0.166251 -2.33855e-21)
(1.1429 0.157902 -1.22326e-21)
(1.14255 0.14964 0)
(1.14178 0.141499 -3.13043e-22)
(1.14064 0.13351 0)
(0.923981 0.252476 -1.17889e-22)
(0.929296 0.257074 -8.46994e-22)
(0.934662 0.261467 -1.62727e-22)
(0.94016 0.26583 8.04385e-22)
(0.945892 0.269938 0)
(0.951907 0.27387 -3.75135e-22)
(0.958288 0.277547 2.1954e-22)
(0.96495 0.280796 2.47271e-22)
(0.972026 0.283792 -2.48673e-22)
(0.979484 0.286382 3.38497e-22)
(0.987177 0.288383 0)
(0.995173 0.289883 0)
(1.00356 0.290932 0)
(1.01209 0.291283 -1.77607e-21)
(1.02062 0.290912 2.32969e-21)
(1.02929 0.28992 -2.36195e-21)
(1.03808 0.288285 0)
(1.04679 0.285937 -4.78583e-21)
(1.05521 0.28288 -7.44766e-21)
(1.0634 0.279177 1.77331e-20)
(1.07141 0.274846 -8.25658e-21)
(1.07915 0.269903 0)
(1.08644 0.264408 0)
(1.09317 0.258451 2.76295e-21)
(1.09945 0.252056 8.39493e-21)
(1.10528 0.245244 -5.79383e-21)
(1.11064 0.238058 7.50353e-23)
(1.11546 0.230579 -1.31999e-20)
(1.11967 0.222942 9.97945e-21)
(1.12331 0.215174 9.14829e-23)
(1.12646 0.207241 0)
(1.12912 0.199182 -1.94069e-21)
(1.13128 0.191033 1.86445e-21)
(1.13294 0.182872 2.05342e-21)
(1.13411 0.174794 2.27914e-23)
(1.13484 0.166776 -3.0237e-21)
(1.13514 0.15878 2.07803e-21)
(1.13503 0.150843 -4.21209e-21)
(1.13451 0.142996 2.65347e-21)
(1.13362 0.135269 0)
(0.929049 0.246182 -3.59226e-23)
(0.934002 0.250337 -2.67314e-22)
(0.939003 0.254301 0)
(0.944121 0.258228 3.0821e-22)
(0.949444 0.261922 0)
(0.955015 0.265452 6.10723e-22)
(0.960906 0.268749 -1.99225e-22)
(0.967043 0.271665 1.16625e-22)
(0.973541 0.274354 -5.26572e-22)
(0.980374 0.276683 0)
(0.987418 0.278495 -7.64421e-22)
(0.994731 0.279866 -1.16784e-21)
(1.00239 0.280843 1.36337e-21)
(1.01019 0.281208 2.12724e-21)
(1.018 0.280935 -3.47361e-21)
(1.02596 0.280115 0)
(1.03403 0.278726 0)
(1.04206 0.2767 2.48954e-22)
(1.04985 0.274033 6.39117e-21)
(1.05747 0.270779 -6.46737e-21)
(1.06494 0.26695 -4.06878e-21)
(1.07221 0.262556 -4.31421e-21)
(1.07909 0.257641 4.19666e-21)
(1.0855 0.252277 0)
(1.09151 0.246487 7.34086e-21)
(1.09714 0.24029 -2.04192e-20)
(1.10234 0.23372 1.33566e-20)
(1.10707 0.226848 -1.13405e-20)
(1.11125 0.219789 5.79166e-21)
(1.1149 0.212573 -2.21606e-22)
(1.11811 0.205172 6.36885e-21)
(1.12085 0.197622 -1.30626e-20)
(1.12312 0.189957 4.94728e-21)
(1.12492 0.182249 -6.84591e-21)
(1.12626 0.174586 5.33268e-21)
(1.12716 0.166951 -3.60235e-21)
(1.12766 0.159313 3.64919e-21)
(1.12775 0.151706 2.75642e-21)
(1.12745 0.144163 -2.8235e-21)
(1.12677 0.136712 0)
(0.933614 0.240398 0)
(0.938244 0.244166 0)
(0.942918 0.247755 -2.32428e-23)
(0.947699 0.251302 -3.70565e-22)
(0.95266 0.254634 2.79059e-22)
(0.957841 0.25781 -9.80895e-22)
(0.963302 0.260775 9.09995e-23)
(0.96898 0.263395 1.03264e-22)
(0.974975 0.26581 9.51545e-22)
(0.981265 0.267904 -8.55079e-22)
(0.987742 0.269537 8.51863e-22)
(0.994459 0.270781 7.10586e-23)
(1.00149 0.271677 -1.30857e-21)
(1.00864 0.27203 9.94394e-22)
(1.01582 0.271819 4.91188e-21)
(1.02314 0.271121 -3.50099e-21)
(1.03057 0.269918 -2.4415e-21)
(1.03798 0.268145 9.33722e-21)
(1.0452 0.265792 8.07369e-21)
(1.05228 0.262905 -1.16305e-20)
(1.05925 0.259493 9.37885e-21)
(1.06606 0.255562 -6.3656e-21)
(1.07254 0.25114 3.86808e-21)
(1.07861 0.24629 -3.80502e-21)
(1.08434 0.24103 4.04314e-21)
(1.08974 0.235377 0)
(1.09477 0.229358 0)
(1.09937 0.223034 2.54966e-21)
(1.10346 0.216506 0)
(1.10709 0.209801 -2.76415e-21)
(1.1103 0.202899 0)
(1.11308 0.19583 8.54598e-21)
(1.11543 0.188626 -3.00723e-21)
(1.11733 0.181355 1.57738e-21)
(1.11878 0.174097 1.61229e-21)
(1.11983 0.16684 0)
(1.12048 0.159559 0)
(1.12074 0.152285 -8.46541e-22)
(1.12061 0.14505 1.25991e-21)
(1.12012 0.137881 -8.40319e-22)
(0.937742 0.235065 2.16848e-22)
(0.94208 0.238491 0)
(0.946461 0.24175 4.72512e-23)
(0.950939 0.244963 2.7738e-22)
(0.955577 0.247976 -8.05492e-22)
(0.96041 0.250842 8.44781e-22)
(0.965492 0.253513 -1.27279e-22)
(0.970765 0.255871 0)
(0.976317 0.258041 -2.61571e-22)
(0.98213 0.259922 4.45355e-22)
(0.98811 0.261391 6.35066e-22)
(0.994304 0.262512 -6.11615e-23)
(1.00077 0.263322 -1.22465e-21)
(1.00736 0.263649 2.21223e-21)
(1.01398 0.263473 1.47194e-21)
(1.02072 0.262863 0)
(1.02759 0.261801 -1.92955e-21)
(1.03443 0.260227 -4.52967e-21)
(1.04113 0.258128 -2.80858e-21)
(1.04772 0.255543 7.68366e-21)
(1.05422 0.252479 -5.3303e-21)
(1.06059 0.248939 3.12184e-21)
(1.06668 0.24494 0)
(1.07241 0.240534 3.59034e-21)
(1.07786 0.235738 -3.81402e-21)
(1.08301 0.230566 0)
(1.08783 0.225039 3.95041e-21)
(1.09228 0.21921 8.71699e-21)
(1.09627 0.213166 -1.36144e-20)
(1.09983 0.206933 9.22717e-21)
(1.10301 0.200493 4.90709e-21)
(1.1058 0.193876 -7.60499e-21)
(1.10818 0.18711 -2.6988e-21)
(1.11014 0.180257 -2.60367e-21)
(1.11168 0.17339 0)
(1.11283 0.166502 0)
(1.11361 0.159571 0)
(1.114 0.152627 7.0467e-22)
(1.11402 0.145701 -7.36585e-22)
(1.11369 0.138818 7.18256e-22)
(0.941485 0.230129 -3.45778e-22)
(0.945559 0.233253 3.19913e-22)
(0.949675 0.23622 -2.6397e-22)
(0.953879 0.239137 -1.82846e-22)
(0.958227 0.241868 5.06585e-22)
(0.962749 0.244461 -3.67156e-22)
(0.967491 0.246871 9.51924e-24)
(0.972403 0.248997 8.70837e-23)
(0.977563 0.250949 5.26957e-22)
(0.982954 0.252637 -1.22679e-21)
(0.988494 0.253956 -3.11563e-22)
(0.994225 0.254959 -3.72602e-22)
(1.0002 0.255684 1.51597e-21)
(1.00629 0.255977 -2.28887e-21)
(1.0124 0.255817 1.11032e-21)
(1.01864 0.255269 3.02994e-21)
(1.02498 0.254315 -3.05826e-21)
(1.03132 0.252899 1.92044e-21)
(1.03754 0.251007 3.5113e-22)
(1.04367 0.248673 -1.9461e-21)
(1.04973 0.245902 0)
(1.05569 0.242692 0)
(1.06141 0.239056 0)
(1.06682 0.235035 6.18981e-21)
(1.07198 0.230647 -6.26956e-21)
(1.07688 0.225899 0)
(1.08149 0.220812 -3.73497e-21)
(1.08576 0.215428 7.66825e-21)
(1.08962 0.209824 -1.1893e-20)
(1.0931 0.204024 0)
(1.09622 0.198013 4.32975e-21)
(1.09898 0.191817 -2.25004e-21)
(1.10136 0.185463 -4.63777e-21)
(1.10336 0.179007 7.17867e-21)
(1.10495 0.172515 -2.53626e-21)
(1.10618 0.165984 6.15569e-21)
(1.10704 0.159394 0)
(1.10755 0.152775 -4.01591e-23)
(1.10768 0.146155 3.17813e-22)
(1.10748 0.139559 -1.86201e-23)
(0.94489 0.225548 1.83154e-22)
(0.948723 0.228404 -2.3341e-23)
(0.952598 0.23111 2.52759e-22)
(0.956553 0.233765 3.61934e-22)
(0.960637 0.236246 0)
(0.964878 0.238595 2.63299e-22)
(0.969316 0.240775 -3.25508e-23)
(0.973905 0.242693 -1.05558e-22)
(0.978714 0.244449 -4.16465e-22)
(0.983728 0.245965 8.2379e-22)
(0.988876 0.247145 -8.30348e-22)
(0.994194 0.24804 -1.43827e-21)
(0.99973 0.248682 1.55197e-21)
(1.00537 0.248935 -3.74925e-21)
(1.01103 0.248781 8.35797e-22)
(1.01681 0.248276 2.36371e-21)
(1.02269 0.247404 -1.37837e-21)
(1.02857 0.246116 -1.54835e-21)
(1.03435 0.244394 3.70751e-21)
(1.04006 0.242269 -1.86236e-21)
(1.04571 0.239744 2.05639e-21)
(1.05128 0.236816 0)
(1.05665 0.233492 0)
(1.06175 0.229808 0)
(1.06662 0.225776 5.78844e-21)
(1.07127 0.221405 -2.64356e-21)
(1.07566 0.21671 -6.21156e-21)
(1.07975 0.211727 -3.2211e-21)
(1.08348 0.206522 -7.08343e-21)
(1.08684 0.201118 1.07018e-20)
(1.08989 0.195503 7.66496e-21)
(1.0926 0.1897 -1.19042e-20)
(1.09496 0.183733 6.01905e-21)
(1.09696 0.177651 0)
(1.09858 0.171517 2.11452e-21)
(1.09986 0.165328 -7.75944e-21)
(1.10079 0.159069 1.15174e-21)
(1.10137 0.152767 -1.14921e-21)
(1.10161 0.146447 -1.16683e-21)
(1.10152 0.140135 6.52254e-22)
(0.947994 0.221285 -3.01059e-22)
(0.951608 0.2239 -2.0348e-23)
(0.955261 0.226374 4.11999e-22)
(0.958988 0.228796 -6.28534e-22)
(0.962833 0.231054 2.8339e-22)
(0.966819 0.233186 0)
(0.97098 0.235159 0)
(0.975277 0.236892 0)
(0.979771 0.238473 1.94704e-22)
(0.984447 0.239833 -4.39409e-22)
(0.989243 0.240888 1.73857e-21)
(0.994191 0.241682 -8.73741e-22)
(0.999333 0.242246 -2.05479e-21)
(1.00457 0.242457 1.53593e-21)
(1.00983 0.2423 2.07819e-21)
(1.01519 0.241824 -2.09786e-21)
(1.02065 0.241017 1.31362e-21)
(1.02611 0.239831 1.47495e-21)
(1.03149 0.23825 3.03991e-21)
(1.03682 0.236301 1.79212e-21)
(1.0421 0.233985 -5.58444e-21)
(1.0473 0.231299 4.20788e-21)
(1.05234 0.228247 -2.13942e-21)
(1.05713 0.224855 -4.82142e-21)
(1.06173 0.221138 1.2421e-20)
(1.06613 0.217101 -2.43514e-21)
(1.07031 0.212755 2.71332e-21)
(1.07421 0.208133 3.0598e-21)
(1.07778 0.203292 6.2798e-21)
(1.08103 0.198251 -4.60544e-23)
(1.08398 0.193001 -3.38573e-21)
(1.08662 0.187561 -1.8113e-21)
(1.08894 0.181955 -1.87624e-21)
(1.09093 0.176227 0)
(1.09256 0.170432 -3.88086e-21)
(1.09386 0.164571 -3.7542e-23)
(1.09484 0.15863 3.02439e-21)
(1.09548 0.152634 4.61794e-21)
(1.0958 0.146608 -2.59562e-21)
(1.0958 0.140574 9.95646e-22)
(0.950832 0.217308 6.85051e-22)
(0.954243 0.219707 -3.67854e-22)
(0.957693 0.221974 -5.64198e-22)
(0.961211 0.224186 1.67495e-22)
(0.964836 0.226244 0)
(0.968588 0.228182 0)
(0.972498 0.229971 0)
(0.97653 0.231538 -7.61115e-23)
(0.980738 0.232961 -4.55884e-22)
(0.98511 0.234181 1.6936e-22)
(0.989588 0.235122 0)
(0.994202 0.235824 1.64099e-21)
(0.99899 0.236314 -9.69997e-22)
(1.00386 0.236484 -1.37456e-21)
(1.00876 0.236319 1.85418e-21)
(1.01375 0.235863 -5.91078e-21)
(1.01882 0.235106 2.12863e-21)
(1.02391 0.234004 -2.44282e-21)
(1.02892 0.232541 -2.90067e-21)
(1.03389 0.230741 -3.18355e-21)
(1.03882 0.228604 3.22061e-21)
(1.04369 0.226127 0)
(1.04841 0.22331 -2.02532e-21)
(1.05292 0.220176 -4.27996e-21)
(1.05725 0.216737 2.02751e-21)
(1.06142 0.212996 0)
(1.06537 0.208964 -2.58323e-21)
(1.06909 0.204667 -2.53702e-21)
(1.0725 0.200156 0)
(1.07562 0.195447 -2.97416e-21)
(1.07847 0.190532 -9.15804e-21)
(1.08103 0.18543 9.43211e-21)
(1.0833 0.180161 -6.52228e-21)
(1.08525 0.174764 1.69361e-21)
(1.08687 0.169291 0)
(1.08818 0.163741 -3.53291e-21)
(1.08918 0.158105 3.57323e-21)
(1.08987 0.152405 0)
(1.09024 0.146664 -2.39983e-22)
(1.09031 0.140902 0)
(0.953431 0.213589 -5.63692e-22)
(0.956656 0.215795 -1.87237e-22)
(0.959917 0.217874 1.87383e-22)
(0.963243 0.219898 0)
(0.966665 0.221777 0)
(0.970203 0.223541 -5.60811e-23)
(0.973883 0.225164 1.15734e-22)
(0.977673 0.226582 1.37171e-23)
(0.981621 0.227864 3.18116e-22)
(0.985715 0.228957 6.11199e-22)
(0.989905 0.229795 -6.15031e-22)
(0.994217 0.230412 0)
(0.998684 0.230834 -6.87789e-23)
(1.00322 0.230963 2.53614e-21)
(1.00779 0.230787 1.66114e-21)
(1.01244 0.230346 1.70422e-22)