/*--------------------------------*- C++ -*----------------------------------*\
| =========                 |                                                 |
| \\      /  F ield         | OpenFOAM: The Open Source CFD Toolbox           |
|  \\    /   O peration     | Version:  3.0.1                                 |
|   \\  /    A nd           | Web:      www.OpenFOAM.org                      |
|    \\/     M anipulation  |                                                 |
\*---------------------------------------------------------------------------*/
FoamFile
{
    version     2.0;
    format      ascii;
    class       volScalarField;
    location    "500";
    object      nut;
}
// * * * * * * * * * * * * * * * * * * * * * * * * * * * * * * * * * * * * * //

dimensions      [0 2 -1 0 0 0 0];

internalField   nonuniform List<scalar> 
58000
(
0.00079424
0.000699088
0.000598576
0.000540981
0.000511835
0.000483184
0.000462164
0.000445705
0.000432231
0.000424047
0.000419401
0.000415991
0.000413327
0.000413058
0.000413369
0.000414229
0.000415532
0.000417723
0.000420347
0.000422973
0.000425721
0.000428361
0.000431069
0.000433493
0.00043564
0.00043757
0.000439217
0.000440605
0.00044184
0.000442647
0.000443177
0.000443406
0.000443277
0.000442721
0.000441132
0.000438436
0.000435114
0.000431607
0.000428093
0.000425863
0.00305192
0.00275009
0.00244024
0.00213567
0.00187972
0.00165697
0.00148058
0.00134726
0.0012395
0.0011576
0.00109708
0.00104839
0.00100807
0.000980037
0.000958535
0.000940366
0.000925212
0.000914504
0.000906699
0.000899615
0.000893729
0.000885932
0.000878714
0.000871777
0.000864048
0.000855526
0.000846438
0.000837482
0.000829603
0.000821469
0.000812821
0.000803714
0.000794135
0.000785092
0.000774937
0.000763246
0.000750477
0.000737247
0.000724009
0.000712419
0.00531627
0.00497313
0.00458667
0.00416244
0.0037799
0.00343461
0.00313838
0.00289716
0.00268962
0.00252235
0.00239401
0.00228756
0.00219489
0.00212557
0.00207191
0.00202545
0.00198392
0.00195127
0.00192673
0.00190528
0.00188507
0.00186343
0.00184444
0.00182737
0.00181007
0.00179203
0.00177332
0.00175475
0.0017384
0.00172035
0.00170002
0.00167792
0.00165424
0.0016299
0.00160425
0.00157646
0.00154736
0.00151729
0.00148739
0.00146045
0.00755409
0.00719904
0.00677667
0.00630508
0.00585085
0.00541768
0.00503398
0.00470545
0.00440932
0.00416002
0.00396123
0.00379176
0.00364085
0.00352327
0.00342993
0.00334785
0.00327361
0.00321263
0.00316474
0.00312332
0.00308247
0.0030414
0.00300558
0.00297388
0.00294276
0.00291085
0.00287825
0.00284461
0.0028126
0.00277991
0.00274534
0.00270956
0.00267085
0.00263051
0.00258844
0.00254362
0.00249734
0.00244956
0.00240161
0.00235615
0.00975974
0.0094072
0.00897537
0.00848202
0.00799477
0.00751641
0.00706929
0.00667882
0.0063152
0.00599693
0.00573417
0.00550404
0.00529447
0.00512588
0.00498888
0.00486638
0.00475434
0.00466001
0.00458345
0.00451537
0.00444947
0.00438493
0.00432836
0.00427833
0.00423027
0.00418012
0.00412796
0.00407597
0.00402705
0.00397826
0.00392641
0.00387153
0.00381397
0.00375549
0.00369484
0.0036305
0.00356317
0.00349483
0.00342604
0.00335926
0.011935
0.0115898
0.0111601
0.0106607
0.0101602
0.00965562
0.00917651
0.00874299
0.0083308
0.00796119
0.00764593
0.00736324
0.00710044
0.00688288
0.00670229
0.00653855
0.00638726
0.00625723
0.00614977
0.0060514
0.00595687
0.00586546
0.00578483
0.00571335
0.00564268
0.00557085
0.00549783
0.00542605
0.00535749
0.00528849
0.0052174
0.00514237
0.00506372
0.00498414
0.0049023
0.00481623
0.00472641
0.00463511
0.00454297
0.00445237
0.0140844
0.0137492
0.0133272
0.0128313
0.0123288
0.0118145
0.0113168
0.0108586
0.0104128
0.0100037
0.00964893
0.00932477
0.0090176
0.00875549
0.00853393
0.00833053
0.00814148
0.00797494
0.00783333
0.00770373
0.00757946
0.00745963
0.00735318
0.00725634
0.00716159
0.00706622
0.00697033
0.00687503
0.0067851
0.00669434
0.00660017
0.00650318
0.00640182
0.0062983
0.00619392
0.00608483
0.00597122
0.00585538
0.00573809
0.00562182
0.0162124
0.015888
0.0154764
0.0149886
0.0144888
0.0139754
0.0134706
0.0129997
0.0125329
0.0120972
0.0117107
0.0113516
0.0110072
0.0107099
0.0104534
0.0102137
0.00998668
0.00978481
0.0096109
0.00945088
0.00929685
0.00914827
0.00901312
0.00889021
0.00877105
0.00865046
0.00852869
0.00840894
0.00829417
0.00817971
0.00806239
0.00794075
0.00781558
0.00768773
0.00755902
0.00742532
0.00728711
0.00714485
0.00700067
0.00685713
0.0183225
0.0180094
0.0176097
0.0171332
0.0166409
0.0161324
0.0156269
0.0151506
0.0146723
0.0142185
0.0138112
0.0134268
0.0130517
0.0127229
0.0124352
0.0121635
0.0119036
0.0116694
0.0114649
0.0112761
0.0110925
0.0109135
0.0107497
0.0106007
0.0104544
0.0103074
0.0101601
0.0100139
0.00987449
0.00973543
0.00959318
0.0094461
0.00929514
0.00914151
0.00898718
0.00882758
0.00866282
0.00849338
0.00832148
0.0081497
0.0204179
0.020116
0.0197288
0.019265
0.0187829
0.0182823
0.0177801
0.0173017
0.0168197
0.016356
0.0159344
0.0155304
0.0151337
0.0147802
0.0144664
0.014167
0.0138778
0.0136139
0.0133799
0.0131608
0.0129484
0.0127418
0.0125502
0.0123733
0.0122011
0.0120275
0.0118525
0.01168
0.0115139
0.0113496
0.0111808
0.0110079
0.0108297
0.0106502
0.0104699
0.0102838
0.0100917
0.00989424
0.00969378
0.00949292
0.0225008
0.02221
0.0218354
0.0213851
0.0209147
0.020424
0.0199284
0.0194525
0.01897
0.018501
0.0180703
0.0176532
0.0172398
0.016865
0.0165285
0.0162049
0.01589
0.0155998
0.0153394
0.0150937
0.0148546
0.0146193
0.0144002
0.0141974
0.0139979
0.0137984
0.0135968
0.0133974
0.0132046
0.013014
0.012819
0.0126197
0.012414
0.0122077
0.0120007
0.0117884
0.0115679
0.0113415
0.0111118
0.0108813
0.0245735
0.0242934
0.0239314
0.0234947
0.0230367
0.022557
0.0220699
0.0215991
0.021119
0.0206481
0.0202104
0.0197858
0.019361
0.0189709
0.0186169
0.0182732
0.0179359
0.017622
0.0173375
0.0170667
0.0168005
0.0165382
0.0162933
0.0160633
0.0158377
0.0156104
0.0153825
0.0151556
0.0149357
0.0147187
0.0144989
0.0142738
0.0140411
0.0138075
0.0135733
0.0133334
0.0130847
0.0128295
0.0125705
0.01231
0.0266373
0.0263677
0.0260179
0.0255949
0.0251496
0.0246816
0.0242042
0.0237402
0.0232647
0.022795
0.0223545
0.0219241
0.0214895
0.021089
0.0207212
0.0203605
0.020003
0.0196679
0.0193616
0.0190693
0.0187795
0.0184919
0.0182209
0.0179647
0.0177119
0.0174574
0.0172026
0.0169511
0.0167056
0.0164624
0.0162168
0.0159654
0.0157054
0.0154436
0.0151823
0.014915
0.0146382
0.0143542
0.0140658
0.0137752
0.0286935
0.0284339
0.0280961
0.0276867
0.0272542
0.0267982
0.0263312
0.0258751
0.0254057
0.0249393
0.0244986
0.0240653
0.0236248
0.0232154
0.0228358
0.0224603
0.0220881
0.0217356
0.0214094
0.0210944
0.0207823
0.0204707
0.0201725
0.0198918
0.0196162
0.0193371
0.0190563
0.0187785
0.0185084
0.0182394
0.0179666
0.0176895
0.0174029
0.0171136
0.0168245
0.0165298
0.016225
0.0159123
0.0155944
0.0152736
0.0307427
0.0304929
0.030167
0.029771
0.0293513
0.0289075
0.0284512
0.0280037
0.0275414
0.0270796
0.0266406
0.0262064
0.0257626
0.0253465
0.0249564
0.0245708
0.0241862
0.0238187
0.023475
0.0231395
0.022803
0.0224694
0.0221492
0.0218449
0.021545
0.0212434
0.0209382
0.0206351
0.0203406
0.0200461
0.0197467
0.0194425
0.01913
0.0188138
0.0184971
0.018175
0.0178421
0.0175007
0.0171534
0.0168025
0.0327851
0.0325452
0.0322311
0.0318484
0.0314415
0.0310099
0.0305647
0.0301261
0.0296715
0.0292153
0.0287791
0.0283457
0.0279006
0.0274802
0.0270829
0.0266885
0.0262931
0.0259125
0.0255535
0.0252003
0.0248432
0.0244873
0.0241465
0.0238199
0.0234969
0.0231728
0.0228441
0.0225165
0.0221979
0.0218784
0.0215532
0.0212232
0.0208843
0.0205411
0.020197
0.0198477
0.0194868
0.0191168
0.0187402
0.0183592
0.0348217
0.0345915
0.0342891
0.0339196
0.0335254
0.033106
0.0326718
0.0322425
0.0317959
0.0313461
0.0309137
0.0304821
0.030037
0.0296139
0.0292114
0.0288098
0.0284054
0.0280135
0.0276409
0.027272
0.0268969
0.0265213
0.0261604
0.0258125
0.0254673
0.0251211
0.0247696
0.0244184
0.0240759
0.0237322
0.0233817
0.0230252
0.0226614
0.0222921
0.0219213
0.0215449
0.0211563
0.0207579
0.0203522
0.0199414
0.0368527
0.0366322
0.0363413
0.0359851
0.0356038
0.0351962
0.034773
0.034353
0.0339148
0.0334717
0.0330437
0.0326148
0.0321709
0.0317464
0.0313399
0.0309325
0.0305205
0.0301189
0.0297341
0.0293512
0.0289599
0.0285664
0.0281865
0.0278186
0.0274521
0.0270833
0.0267109
0.0263371
0.0259703
0.025604
0.0252297
0.0248483
0.0244595
0.0240646
0.0236673
0.023264
0.022848
0.0224216
0.0219872
0.0215468
0.0388786
0.0386675
0.038388
0.038045
0.0376774
0.0372807
0.0368683
0.0364577
0.036028
0.0355921
0.035169
0.0347434
0.0343015
0.0338765
0.0334672
0.0330551
0.0326368
0.0322265
0.031831
0.0314353
0.0310294
0.0306193
0.0302206
0.0298349
0.0294489
0.0290594
0.0286665
0.0282709
0.0278815
0.0274926
0.0270949
0.0266893
0.0262761
0.0258559
0.0254325
0.0250026
0.0245596
0.0241057
0.023643
0.0231735
0.0408994
0.0406974
0.0404288
0.0400984
0.0397432
0.0393585
0.0389574
0.0385567
0.0381356
0.037707
0.0372893
0.0368675
0.0364283
0.0360037
0.0355924
0.0351767
0.0347529
0.034335
0.0339297
0.0335224
0.0331032
0.0326781
0.0322628
0.0318598
0.0314551
0.0310461
0.0306333
0.030217
0.0298059
0.029395
0.0289746
0.0285456
0.0281087
0.0276637
0.0272146
0.0267576
0.0262888
0.0258082
0.0253178
0.0248198
0.0429148
0.0427218
0.0424642
0.0421461
0.0418026
0.0414297
0.0410401
0.0406506
0.0402374
0.0398162
0.0394042
0.0389869
0.0385511
0.0381276
0.0377151
0.0372963
0.0368678
0.0364432
0.0360289
0.0356109
0.0351794
0.0347407
0.0343101
0.0338907
0.0334684
0.0330406
0.0326086
0.0321725
0.0317406
0.0313086
0.0308665
0.030415
0.029955
0.029486
0.029012
0.0285294
0.0280349
0.0275278
0.0270103
0.0264841
0.0449247
0.0447404
0.0444937
0.0441889
0.0438557
0.0434941
0.0431156
0.0427359
0.042332
0.041919
0.0415137
0.0411013
0.0406696
0.0402477
0.0398348
0.0394136
0.038981
0.03855
0.0381272
0.0376991
0.0372563
0.0368049
0.0363601
0.0359253
0.0354864
0.0350408
0.0345892
0.0341351
0.0336836
0.0332303
0.0327685
0.0322955
0.031813
0.0313209
0.0308229
0.0303156
0.0297959
0.029263
0.0287187
0.0281651
0.0469286
0.0467528
0.0465163
0.0462232
0.0459015
0.0455515
0.0451841
0.0448139
0.0444192
0.0440149
0.0436177
0.0432099
0.0427837
0.0423632
0.0419516
0.0415281
0.0410917
0.0406546
0.0402235
0.0397855
0.0393321
0.038869
0.038411
0.0379618
0.0375075
0.0370453
0.0365763
0.0361044
0.0356341
0.035161
0.0346791
0.0341851
0.0336808
0.0331664
0.0326453
0.0321142
0.0315701
0.031012
0.0304418
0.0298612
0.0489262
0.0487588
0.0485325
0.0482503
0.04794
0.0476017
0.0472465
0.0468846
0.0464988
0.0461029
0.0457126
0.0453104
0.044889
0.0444712
0.0440607
0.043638
0.0431993
0.042756
0.0423167
0.041868
0.0414053
0.0409314
0.040461
0.0399981
0.0395296
0.0390523
0.038567
0.0380783
0.0375901
0.0370981
0.0365968
0.0360824
0.035556
0.0350208
0.0344778
0.0339238
0.0333562
0.0327737
0.0321782
0.0315714
0.0509167
0.0507578
0.0505425
0.0502701
0.0499706
0.0496438
0.0492991
0.0489467
0.0485704
0.0481833
0.0477998
0.0474036
0.0469868
0.0465721
0.0461622
0.0457389
0.0452983
0.0448522
0.0444064
0.0439477
0.0434752
0.0429908
0.0425085
0.0420317
0.0415514
0.0410602
0.0405599
0.0400552
0.0395499
0.03904
0.0385202
0.0379864
0.0374398
0.0368839
0.0363195
0.0357433
0.0351528
0.0345467
0.0339267
0.0332944
0.0528993
0.0527487
0.0525427
0.052281
0.0519929
0.0516784
0.051343
0.0509999
0.0506335
0.0502565
0.0498792
0.0494899
0.0490773
0.0486667
0.0482568
0.0478323
0.047389
0.0469385
0.0464863
0.0460203
0.0455394
0.0450457
0.0445527
0.0440637
0.0435707
0.0430667
0.0425525
0.0420331
0.0415118
0.040985
0.0404476
0.0398955
0.0393297
0.038754
0.038169
0.0375714
0.0369589
0.0363299
0.0356861
0.0350291
0.0548734
0.0547319
0.0545339
0.0542827
0.0540057
0.0537019
0.0533769
0.0530436
0.0526871
0.0523189
0.0519488
0.0515654
0.051158
0.0507509
0.0503436
0.0499186
0.0494718
0.0490163
0.0485565
0.0480846
0.0475966
0.0470948
0.0465921
0.0460919
0.0455858
0.0450706
0.044544
0.044011
0.0434747
0.0429317
0.0423773
0.041808
0.0412242
0.0406298
0.0400251
0.039407
0.0387732
0.0381222
0.0374555
0.0367745
0.0568374
0.0567036
0.0565148
0.0562747
0.0560097
0.0557154
0.0554006
0.0550775
0.0547319
0.0543714
0.0540094
0.053631
0.0532298
0.0528249
0.0524185
0.051993
0.0515453
0.0510857
0.050619
0.0501406
0.049646
0.0491368
0.0486256
0.0481154
0.0475984
0.0470721
0.0465336
0.0459878
0.0454374
0.044879
0.0443076
0.0437226
0.0431223
0.0425101
0.0418867
0.041249
0.0405948
0.0399226
0.0392337
0.0385297
0.0587911
0.0586646
0.0584851
0.0582559
0.0580014
0.0577177
0.0574136
0.0571005
0.0567643
0.0564124
0.0560573
0.0556849
0.055289
0.0548885
0.0544831
0.0540557
0.0536053
0.0531406
0.05267
0.0521865
0.0516862
0.0511707
0.050652
0.050133
0.0496064
0.0490697
0.0485202
0.0479625
0.0473991
0.0468265
0.0462399
0.0456396
0.0450231
0.0443941
0.0437527
0.0430963
0.0424226
0.0417301
0.04102
0.0402938
0.0607337
0.0606145
0.0604446
0.0602269
0.0599816
0.0597086
0.0594156
0.0591133
0.0587854
0.0584429
0.0580936
0.0577281
0.0573359
0.0569379
0.056533
0.0561061
0.0556534
0.0551841
0.0547093
0.0542214
0.0537163
0.0531954
0.0526701
0.0521435
0.0516082
0.0510623
0.0505027
0.0499341
0.0493586
0.0487729
0.0481723
0.0475575
0.0469257
0.0462806
0.0456223
0.0449479
0.0442557
0.0435437
0.0428134
0.042066
0.0626643
0.0625521
0.0623925
0.0621838
0.0619488
0.0616873
0.0614061
0.0611124
0.0607934
0.0604589
0.0601166
0.0597572
0.0593708
0.0589747
0.0585684
0.0581406
0.0576839
0.0572129
0.0567354
0.0562441
0.0557351
0.0552098
0.054679
0.0541456
0.0536028
0.0530486
0.05248
0.0519014
0.0513148
0.050717
0.0501035
0.0494751
0.048829
0.0481687
0.0474943
0.046803
0.0460931
0.0453626
0.044613
0.0438454
0.0645818
0.0644761
0.064325
0.0641264
0.0639023
0.0636531
0.0633816
0.0630976
0.0627889
0.0624617
0.0621269
0.061773
0.0613902
0.0609944
0.060588
0.0601565
0.0596991
0.0592271
0.0587476
0.0582539
0.057742
0.057213
0.0566777
0.0561386
0.0555892
0.0550278
0.0544511
0.0538634
0.0532667
0.0526578
0.0520324
0.0513914
0.0507318
0.0500573
0.0493678
0.0486606
0.0479339
0.047186
0.046418
0.0456312
0.0664854
0.0663858
0.0662428
0.0660544
0.0658411
0.0656027
0.0653421
0.0650688
0.0647684
0.0644497
0.06412
0.0637713
0.0633907
0.0629968
0.0625889
0.0621564
0.0616985
0.061226
0.0607454
0.06025
0.059736
0.0592044
0.0586654
0.0581216
0.0575666
0.0569988
0.056415
0.0558193
0.0552134
0.0545944
0.053958
0.0533052
0.0526331
0.0519454
0.0512418
0.0505198
0.0497774
0.0490129
0.0482275
0.0474226
0.0683745
0.0682807
0.0681457
0.0679676
0.0677659
0.067537
0.0672874
0.0670227
0.0667319
0.0664201
0.0660963
0.0657499
0.0653724
0.0649785
0.0645706
0.0641384
0.0636812
0.063209
0.062728
0.0622318
0.0617165
0.0611832
0.0606415
0.0600939
0.0595343
0.0589611
0.058371
0.0577682
0.057154
0.0565257
0.0558794
0.0552158
0.054532
0.0538321
0.0531156
0.0523799
0.0516227
0.0508425
0.0500408
0.0492189
0.070248
0.0701596
0.0700323
0.0698651
0.0696726
0.0694545
0.0692139
0.0689591
0.0686763
0.0683735
0.0680534
0.067709
0.0673322
0.0669395
0.0665328
0.0661019
0.0656463
0.0651753
0.0646949
0.0641986
0.0636829
0.0631487
0.0626052
0.0620548
0.0614915
0.0609138
0.0603183
0.0597091
0.0590876
0.058451
0.0577956
0.0571222
0.0564277
0.0557166
0.0549882
0.0542408
0.053469
0.0526738
0.0518568
0.0510192
0.0721052
0.0720218
0.0719011
0.0717427
0.0715608
0.0713516
0.0711213
0.0708747
0.0706016
0.0703029
0.0699872
0.0696444
0.06927
0.0688797
0.0684752
0.0680467
0.0675935
0.0671246
0.0666453
0.0661498
0.0656345
0.0651002
0.0645557
0.0640035
0.0634378
0.0628562
0.0622561
0.0616414
0.0610134
0.0603694
0.0597058
0.0590234
0.0583192
0.0575976
0.056858
0.0560988
0.0553142
0.0545055
0.0536745
0.0528226
0.0739455
0.0738665
0.0737516
0.0736007
0.0734273
0.0732283
0.0730063
0.0727697
0.072502
0.0722096
0.0718965
0.0715566
0.0711859
0.070799
0.0703977
0.0699724
0.0695224
0.0690563
0.068579
0.0680849
0.0675706
0.0670369
0.0664923
0.0659393
0.0653731
0.0647876
0.0641833
0.0635639
0.0629303
0.0622798
0.0616091
0.0609186
0.0602055
0.0594743
0.0587243
0.0579539
0.0571576
0.0563367
0.0554929
0.0546283
0.0757682
0.0756933
0.0755837
0.0754392
0.0752729
0.0750819
0.0748689
0.0746387
0.0743788
0.0740925
0.0737824
0.0734465
0.0730803
0.0726978
0.0723003
0.0718789
0.0714328
0.07097
0.0704953
0.0700033
0.0694907
0.0689582
0.0684141
0.0678606
0.0672935
0.066706
0.0660989
0.0654757
0.0648374
0.0641816
0.0635048
0.062807
0.0620856
0.0613456
0.060586
0.0598054
0.0589984
0.0581664
0.0573114
0.0564357
0.077573
0.0775018
0.077397
0.0772582
0.077098
0.0769136
0.0767075
0.0764835
0.0762301
0.0759499
0.075645
0.0753142
0.0749534
0.0745759
0.0741829
0.073766
0.0733242
0.0728653
0.0723938
0.0719044
0.071394
0.0708634
0.0703203
0.0697671
0.0691995
0.0686109
0.068002
0.067376
0.0667339
0.0660735
0.0653925
0.0646874
0.0639585
0.0632105
0.0624422
0.0616524
0.0608358
0.0599939
0.0591289
0.0582439
0.079359
0.0792915
0.079191
0.0790577
0.078903
0.0787245
0.0785244
0.0783062
0.0780588
0.0777846
0.0774855
0.0771604
0.0768054
0.0764334
0.0760454
0.0756333
0.0751963
0.0747417
0.0742738
0.0737875
0.07328
0.0727519
0.0722105
0.071658
0.0710907
0.0705019
0.0698923
0.0692642
0.0686187
0.0679541
0.0672681
0.0665576
0.0658225
0.0650677
0.0642918
0.0634939
0.0626688
0.0618182
0.0609448
0.0600522
0.0811258
0.0810616
0.0809654
0.0808371
0.0806877
0.0805147
0.0803202
0.0801074
0.0798659
0.0795977
0.0793044
0.0789852
0.0786364
0.07827
0.0778872
0.0774803
0.0770485
0.0765986
0.0761347
0.0756521
0.0751479
0.0746228
0.0740837
0.0735328
0.0729664
0.0723784
0.0717699
0.0711394
0.070491
0.0698225
0.069131
0.0684165
0.0676769
0.0669164
0.0661338
0.065329
0.0644966
0.0636386
0.0627582
0.06186
0.0828725
0.0828115
0.0827193
0.0825958
0.0824515
0.0822838
0.0820947
0.0818872
0.0816514
0.0813891
0.0811017
0.0807884
0.0804459
0.0800855
0.0797082
0.0793067
0.0788803
0.0784354
0.077976
0.0774974
0.076997
0.0764755
0.0759394
0.0753908
0.0748259
0.0742389
0.0736309
0.0729998
0.0723496
0.0716785
0.0709834
0.0702644
0.0695213
0.0687563
0.067968
0.0671571
0.0663184
0.0654542
0.0645682
0.0636664
0.0845983
0.0845404
0.0844521
0.0843333
0.0841938
0.0840312
0.0838474
0.0836452
0.0834149
0.0831584
0.082877
0.0825697
0.0822335
0.0818792
0.0815075
0.0811116
0.0806909
0.0802514
0.0797967
0.0793226
0.0788265
0.0783091
0.0777768
0.0772314
0.0766685
0.0760829
0.0754758
0.0748447
0.0741937
0.0735211
0.0728238
0.072102
0.0713559
0.0705868
0.0697936
0.0689773
0.0681332
0.0672638
0.0663738
0.0654706
0.0863025
0.0862476
0.086163
0.0860487
0.0859139
0.0857563
0.0855777
0.0853806
0.0851559
0.0849052
0.0846297
0.0843285
0.0839987
0.0836504
0.0832845
0.0828945
0.0824796
0.0820457
0.0815961
0.0811269
0.0806356
0.0801228
0.079595
0.0790547
0.0784935
0.07791
0.0773039
0.0766734
0.0760224
0.0753493
0.0746513
0.0739278
0.0731802
0.0724067
0.0716092
0.0707884
0.0699398
0.0690665
0.068174
0.0672715
0.0879842
0.0879321
0.0878512
0.0877413
0.0876111
0.0874584
0.0872848
0.0870928
0.0868736
0.0866287
0.0863591
0.086064
0.0857406
0.0853986
0.0850386
0.0846546
0.0842458
0.0838177
0.0833735
0.0829095
0.0824233
0.0819157
0.0813925
0.0808564
0.0802989
0.0797196
0.0791144
0.0784848
0.0778346
0.0771621
0.076465
0.0757398
0.0749903
0.074214
0.0734133
0.072589
0.071737
0.0708611
0.0699676
0.069068
0.0896427
0.0895934
0.089516
0.0894103
0.0892845
0.0891366
0.0889681
0.088781
0.0885673
0.0883283
0.0880645
0.0877756
0.0874587
0.0871229
0.086769
0.086391
0.0859885
0.0855664
0.085128
0.0846695
0.084189
0.0836869
0.0831689
0.0826371
0.0820835
0.0815076
0.0809051
0.0802776
0.079629
0.078958
0.0782616
0.0775361
0.0767853
0.0760072
0.0752044
0.0743777
0.0735236
0.0726461
0.0717532
0.070859
0.0912772
0.0912305
0.0911565
0.0910549
0.0909335
0.0907902
0.0906266
0.0904445
0.0902363
0.0900031
0.0897453
0.0894625
0.0891521
0.0888227
0.0884748
0.0881031
0.087707
0.0872912
0.0868588
0.0864063
0.0859318
0.0854358
0.0849238
0.0843966
0.0838471
0.0832748
0.0826754
0.0820507
0.0814047
0.080737
0.0800408
0.0793161
0.0785642
0.0777848
0.0769816
0.0761536
0.0752982
0.0744204
0.0735297
0.0726431
0.092887
0.0928428
0.092772
0.0926744
0.0925572
0.0924186
0.0922598
0.0920827
0.0918799
0.0916525
0.0914008
0.0911241
0.0908202
0.0904971
0.0901554
0.0897901
0.0894005
0.0889913
0.0885652
0.088119
0.0876509
0.0871618
0.0866574
0.0861344
0.0855894
0.0850208
0.0844248
0.0838033
0.08316
0.0824948
0.0818004
0.0810768
0.0803249
0.0795464
0.0787448
0.0779156
0.0770596
0.0761826
0.0752955
0.0744189
0.0944714
0.0944296
0.0943619
0.0942682
0.0941551
0.0940209
0.0938669
0.0936947
0.0934974
0.093276
0.0930304
0.0927598
0.0924622
0.0921454
0.09181
0.0914511
0.0910683
0.0906659
0.0902464
0.0898068
0.0893456
0.0888635
0.0883657
0.0878486
0.0873101
0.0867448
0.0861523
0.0855343
0.0848943
0.0842318
0.0835398
0.0828182
0.0820677
0.0812905
0.08049
0.0796614
0.0788062
0.0779312
0.0770493
0.0761848
0.0960297
0.0959902
0.0959255
0.0958355
0.0957264
0.0955966
0.0954472
0.0952799
0.0950881
0.0948727
0.0946337
0.0943689
0.0940775
0.093767
0.0934378
0.0930856
0.0927097
0.0923142
0.0919016
0.0914691
0.0910153
0.0905407
0.0900494
0.0895381
0.0890051
0.0884446
0.0878566
0.0872429
0.0866067
0.0859476
0.0852586
0.0845396
0.0837913
0.083016
0.0822171
0.08139
0.0805367
0.0796649
0.0787896
0.0779394
0.0975613
0.097524
0.0974623
0.0973758
0.0972706
0.097145
0.0970002
0.0968376
0.0966512
0.096442
0.0962106
0.0959507
0.0956652
0.095361
0.0950382
0.0946927
0.0943239
0.0939357
0.0935303
0.0931052
0.0926594
0.0921939
0.0917083
0.0912031
0.0906753
0.0901198
0.0895369
0.0889282
0.0882969
0.0876415
0.0869558
0.08624
0.0854946
0.0847219
0.0839253
0.0831006
0.0822501
0.0813825
0.080515
0.0796811
0.0990658
0.0990306
0.0989716
0.0988886
0.0987871
0.0986657
0.0985253
0.0983673
0.0981861
0.0979826
0.0977573
0.0975034
0.0972244
0.0969267
0.0966106
0.096272
0.0959105
0.0955296
0.0951317
0.0947145
0.094277
0.0938192
0.0933408
0.0928433
0.0923201
0.0917697
0.0911923
0.0905893
0.0899645
0.0893125
0.0886304
0.0879183
0.0871765
0.0864072
0.0856137
0.0847921
0.0839453
0.0830829
0.0822244
0.0814084
0.100542
0.100509
0.100453
0.100373
0.100275
0.100158
0.100022
0.0998685
0.0996924
0.0994944
0.0992748
0.0990272
0.0987548
0.0984638
0.0981544
0.0978229
0.0974688
0.0970955
0.0967053
0.0962963
0.0958684
0.0954173
0.094946
0.0944549
0.0939375
0.0933931
0.092822
0.0922248
0.0916055
0.0909583
0.0902809
0.0895733
0.0888359
0.0880708
0.0872811
0.0864636
0.0856213
0.084765
0.0839164
0.0831198
0.101991
0.10196
0.101906
0.10183
0.101735
0.101622
0.10149
0.101341
0.10117
0.100977
0.100763
0.100522
0.100256
0.0999718
0.0996693
0.0993449
0.0989983
0.0986329
0.0982505
0.0978497
0.0974301
0.096987
0.0965244
0.0960386
0.0955269
0.094989
0.094426
0.093834
0.0932201
0.0925783
0.0919063
0.091204
0.0904718
0.0897114
0.0889267
0.0881141
0.0872772
0.0864277
0.0855899
0.0848139
0.103411
0.103382
0.10333
0.103257
0.103166
0.103056
0.102929
0.102784
0.102618
0.10243
0.102222
0.101987
0.101728
0.10145
0.101155
0.100838
0.100499
0.100141
0.0997672
0.0993748
0.098963
0.0985279
0.0980723
0.0975927
0.0970873
0.096556
0.0960001
0.0954152
0.0948075
0.0941716
0.0935057
0.0928095
0.0920834
0.0913288
0.0905497
0.0897428
0.088912
0.08807
0.0872437
0.0864891
0.104802
0.104774
0.104725
0.104655
0.104568
0.104462
0.104338
0.104197
0.104036
0.103854
0.103651
0.103422
0.10317
0.102899
0.102611
0.102301
0.10197
0.10162
0.101255
0.100872
0.100467
0.100041
0.0995906
0.0991171
0.0986182
0.0980937
0.097545
0.0969686
0.096367
0.0957376
0.0950784
0.0943891
0.0936697
0.092922
0.0921495
0.091349
0.0905251
0.0896912
0.0888768
0.0881443
0.106164
0.106138
0.106091
0.106024
0.105939
0.105837
0.105717
0.105581
0.105424
0.105248
0.105051
0.104828
0.104582
0.104318
0.104037
0.103734
0.103411
0.10307
0.102713
0.102338
0.101941
0.101521
0.101078
0.100611
0.100119
0.0996014
0.0990597
0.0984912
0.0978971
0.0972752
0.0966237
0.095942
0.0952301
0.0944907
0.0937256
0.0929322
0.0921156
0.0912903
0.0904882
0.0897782
0.107497
0.107472
0.107428
0.107363
0.107282
0.107183
0.107067
0.106935
0.106783
0.106611
0.10642
0.106204
0.105965
0.105707
0.105432
0.105137
0.104822
0.10449
0.104142
0.103773
0.103384
0.102971
0.102534
0.102074
0.101589
0.101079
0.100544
0.0999838
0.0993978
0.0987844
0.0981412
0.097468
0.0967648
0.0960356
0.0952776
0.0944916
0.0936829
0.0928667
0.0920771
0.0913897
0.1088
0.108777
0.108734
0.108672
0.108594
0.108498
0.108386
0.108258
0.108111
0.107944
0.107759
0.107549
0.107317
0.107066
0.106797
0.106509
0.106202
0.10588
0.105538
0.105176
0.104794
0.104388
0.103958
0.103506
0.10303
0.102527
0.102
0.101448
0.10087
0.100265
0.0996306
0.0989665
0.0982728
0.097553
0.0968038
0.0960263
0.0952262
0.0944195
0.0936427
0.0929777
0.110073
0.110051
0.110011
0.109951
0.109876
0.109784
0.109675
0.109551
0.109408
0.109247
0.109067
0.108866
0.108638
0.108393
0.108131
0.107851
0.107552
0.107237
0.106902
0.106546
0.106171
0.105772
0.105351
0.104908
0.104439
0.103946
0.103426
0.102882
0.102313
0.101717
0.101092
0.100438
0.0997539
0.0990438
0.0983041
0.0975359
0.096745
0.0959481
0.0951842
0.0945414
0.111317
0.111296
0.111257
0.1112
0.111128
0.111039
0.110934
0.110814
0.110675
0.110519
0.110345
0.110149
0.109928
0.109689
0.109434
0.109161
0.108871
0.108562
0.108233
0.107885
0.107515
0.107126
0.106713
0.106278
0.105819
0.105334
0.104824
0.104288
0.103727
0.103141
0.102526
0.101881
0.101208
0.100508
0.0997788
0.0990202
0.0982389
0.0974523
0.0967011
0.09608
0.11253
0.112511
0.112474
0.11242
0.11235
0.112264
0.112162
0.112046
0.111912
0.11176
0.111591
0.111402
0.111187
0.110955
0.110706
0.11044
0.110157
0.109855
0.109534
0.109192
0.10883
0.108449
0.108045
0.107619
0.107169
0.106693
0.106192
0.105666
0.105114
0.104537
0.103932
0.103298
0.102636
0.101947
0.101228
0.100479
0.0997078
0.0989314
0.0981928
0.0975927
0.113715
0.113696
0.113661
0.113609
0.113542
0.113459
0.113361
0.113248
0.113118
0.112971
0.112807
0.112623
0.112415
0.112189
0.111947
0.111687
0.111411
0.111116
0.110802
0.110469
0.110115
0.109741
0.109346
0.108929
0.108488
0.108022
0.107531
0.107014
0.106473
0.105906
0.105311
0.104688
0.104039
0.10336
0.102651
0.101912
0.101151
0.100385
0.099659
0.0990791
0.114869
0.114852
0.114818
0.114768
0.114704
0.114624
0.114529
0.11442
0.114294
0.114151
0.113993
0.113814
0.113613
0.113394
0.113158
0.112904
0.112633
0.112346
0.112041
0.111715
0.111369
0.111003
0.110617
0.110209
0.109777
0.109321
0.10884
0.108334
0.107803
0.107246
0.106662
0.106051
0.105413
0.104745
0.104046
0.103319
0.102568
0.101813
0.101099
0.100539
0.115994
0.115978
0.115946
0.115898
0.115836
0.115758
0.115667
0.115561
0.115439
0.115301
0.115148
0.114976
0.114781
0.114568
0.114338
0.114091
0.113826
0.113547
0.113248
0.112931
0.112592
0.112234
0.111857
0.111458
0.111036
0.11059
0.110119
0.109624
0.109104
0.108558
0.107985
0.107385
0.106759
0.106102
0.105415
0.104699
0.103959
0.103215
0.102512
0.10197
0.11709
0.117074
0.117044
0.116998
0.116938
0.116864
0.116775
0.116673
0.116555
0.116421
0.116273
0.116107
0.11592
0.115712
0.115489
0.115248
0.114989
0.114717
0.114426
0.114116
0.113786
0.113436
0.113067
0.112678
0.112266
0.11183
0.111369
0.110884
0.110375
0.10984
0.109279
0.108691
0.108077
0.107432
0.106756
0.106051
0.105323
0.104589
0.103899
0.103374
0.118156
0.118142
0.118113
0.118069
0.118011
0.117939
0.117854
0.117755
0.117641
0.117512
0.117368
0.117207
0.117027
0.116825
0.116608
0.116374
0.116123
0.115856
0.115573
0.115271
0.11495
0.114608
0.114248
0.113868
0.113465
0.113039
0.112589
0.112115
0.111617
0.111093
0.110544
0.10997
0.109367
0.108733
0.108069
0.107376
0.106659
0.105937
0.105258
0.10475
0.119194
0.11918
0.119153
0.11911
0.119055
0.118986
0.118903
0.118808
0.118697
0.118572
0.118433
0.118278
0.118103
0.117909
0.117698
0.117471
0.117226
0.116966
0.116691
0.116397
0.116083
0.11575
0.115398
0.115027
0.114635
0.114219
0.113779
0.113316
0.112829
0.112317
0.111779
0.111218
0.110627
0.110005
0.109354
0.108673
0.107968
0.107257
0.106589
0.106096
0.120203
0.12019
0.120164
0.120123
0.12007
0.120004
0.119924
0.119831
0.119725
0.119604
0.119469
0.119319
0.11915
0.118963
0.118759
0.118538
0.1183
0.118046
0.117779
0.117493
0.117188
0.116863
0.116519
0.116158
0.115775
0.115369
0.11494
0.114488
0.114012
0.113511
0.112986
0.112436
0.111858
0.111249
0.11061
0.109942
0.109249
0.108549
0.107892
0.107414
0.121184
0.121172
0.121147
0.121108
0.121057
0.120993
0.120916
0.120826
0.120723
0.120606
0.120476
0.120331
0.120169
0.11999
0.119791
0.119576
0.119345
0.119098
0.118837
0.118559
0.118263
0.117947
0.117612
0.117258
0.116885
0.11649
0.116072
0.11563
0.115166
0.114677
0.114163
0.113626
0.11306
0.112464
0.111838
0.111182
0.110502
0.109814
0.109167
0.108702
0.122137
0.122126
0.122102
0.122065
0.122015
0.121954
0.12188
0.121793
0.121693
0.12158
0.121454
0.121314
0.121157
0.120985
0.120793
0.120585
0.120361
0.120121
0.119867
0.119597
0.119309
0.119002
0.118676
0.118331
0.117967
0.117581
0.117174
0.116744
0.11629
0.115813
0.115312
0.114787
0.114234
0.113651
0.113037
0.112394
0.111726
0.11105
0.110414
0.109961
0.123062
0.123052
0.123029
0.122993
0.122946
0.122887
0.122815
0.122732
0.122636
0.122527
0.122405
0.122269
0.122118
0.121951
0.121766
0.121565
0.121348
0.121116
0.120869
0.120607
0.120326
0.120028
0.119711
0.119376
0.11902
0.118644
0.118247
0.117828
0.117386
0.116921
0.116434
0.115921
0.115379
0.114808
0.114208
0.113578
0.112922
0.112257
0.111631
0.111189
0.123961
0.123951
0.123929
0.123895
0.12385
0.123793
0.123724
0.123643
0.12355
0.123445
0.123327
0.123196
0.12305
0.12289
0.122712
0.122518
0.122308
0.122083
0.121842
0.121588
0.121316
0.121026
0.120718
0.120392
0.120046
0.11968
0.119293
0.118884
0.118453
0.118
0.117526
0.117025
0.116495
0.115937
0.115349
0.114732
0.114088
0.113435
0.112818
0.112386
0.124832
0.124823
0.124803
0.12477
0.124727
0.124672
0.124605
0.124528
0.124438
0.124336
0.124223
0.124096
0.123955
0.123801
0.123632
0.123443
0.12324
0.123022
0.122789
0.12254
0.122277
0.121996
0.121697
0.12138
0.121044
0.120688
0.12031
0.119912
0.119493
0.119052
0.118589
0.118099
0.117582
0.117036
0.11646
0.115855
0.115225
0.114582
0.113975
0.113551
0.125678
0.125669
0.12565
0.125619
0.125577
0.125524
0.12546
0.125386
0.125299
0.125201
0.125091
0.124969
0.124833
0.124685
0.124522
0.124341
0.124145
0.123933
0.123708
0.123467
0.123211
0.122938
0.122648
0.12234
0.122014
0.121667
0.1213