/*--------------------------------*- C++ -*----------------------------------*\
| =========                 |                                                 |
| \\      /  F ield         | OpenFOAM: The Open Source CFD Toolbox           |
|  \\    /   O peration     | Version:  3.0.1                                 |
|   \\  /    A nd           | Web:      www.OpenFOAM.org                      |
|    \\/     M anipulation  |                                                 |
\*---------------------------------------------------------------------------*/
FoamFile
{
    version     2.0;
    format      ascii;
    class       volScalarField;
    location    "500";
    object      p;
}
// * * * * * * * * * * * * * * * * * * * * * * * * * * * * * * * * * * * * * //

dimensions      [0 2 -2 0 0 0 0];

internalField   nonuniform List<scalar> 
58000
(
0.423064
0.225769
0.0444353
-0.0953727
-0.194172
-0.262235
-0.31169
-0.345239
-0.370961
-0.39007
-0.401061
-0.406719
-0.409775
-0.410552
-0.409279
-0.407362
-0.405212
-0.40255
-0.399079
-0.395421
-0.391872
-0.388325
-0.384536
-0.380374
-0.376258
-0.37228
-0.368271
-0.364179
-0.359886
-0.355497
-0.351203
-0.346836
-0.342208
-0.337271
-0.332452
-0.326448
-0.319954
-0.31421
-0.310398
-0.307721
0.438904
0.37533
0.306225
0.22324
0.138238
0.0528285
-0.0229444
-0.0874576
-0.14449
-0.191122
-0.229018
-0.261184
-0.287259
-0.305483
-0.31898
-0.329195
-0.336513
-0.341115
-0.343925
-0.345607
-0.346243
-0.346008
-0.344965
-0.34356
-0.341824
-0.33971
-0.337262
-0.334532
-0.331649
-0.328788
-0.325821
-0.322785
-0.319809
-0.316932
-0.31376
-0.309647
-0.30488
-0.300382
-0.296954
-0.295134
0.331527
0.287857
0.241007
0.187784
0.129048
0.0705954
0.0107864
-0.0430708
-0.0930527
-0.138543
-0.176254
-0.208127
-0.236138
-0.258727
-0.275571
-0.289115
-0.300113
-0.308456
-0.314225
-0.318223
-0.321058
-0.32292
-0.323862
-0.32393
-0.323379
-0.322396
-0.321045
-0.319375
-0.317432
-0.315204
-0.312751
-0.310124
-0.307324
-0.304367
-0.301229
-0.297814
-0.294185
-0.290613
-0.287342
-0.284404
0.293234
0.269318
0.24244
0.209295
0.170003
0.127358
0.081214
0.0358559
-0.00938811
-0.0527629
-0.0914319
-0.126503
-0.158741
-0.186019
-0.208169
-0.22721
-0.243448
-0.256472
-0.266454
-0.27435
-0.280703
-0.28564
-0.289152
-0.291487
-0.293016
-0.293892
-0.294168
-0.293891
-0.293152
-0.292074
-0.290704
-0.289068
-0.287185
-0.285091
-0.282848
-0.280452
-0.277858
-0.275149
-0.272453
-0.269846
0.245203
0.228085
0.210039
0.18854
0.161976
0.132656
0.0986483
0.0636671
0.0273356
-0.00971104
-0.044342
-0.0768776
-0.108053
-0.136024
-0.159552
-0.180562
-0.199254
-0.215062
-0.22775
-0.23819
-0.247017
-0.254323
-0.260046
-0.264287
-0.267516
-0.269962
-0.271683
-0.272734
-0.273174
-0.273099
-0.27264
-0.271836
-0.270708
-0.269298
-0.267659
-0.265823
-0.263791
-0.261596
-0.259287
-0.256887
0.213272
0.200671
0.187724
0.172542
0.153616
0.132608
0.107437
0.0806284
0.0519368
0.0214542
-0.00826665
-0.0372115
-0.0658444
-0.0926362
-0.116037
-0.13766
-0.157508
-0.174911
-0.189429
-0.201815
-0.212647
-0.221935
-0.229541
-0.235515
-0.240372
-0.244347
-0.247486
-0.249827
-0.251416
-0.252387
-0.252904
-0.253004
-0.252711
-0.252065
-0.251125
-0.249958
-0.24857
-0.246968
-0.245177
-0.243225
0.185749
0.175776
0.165848
0.15452
0.14039
0.12485
0.105829
0.0851944
0.0627434
0.0381153
0.0133371
-0.0114267
-0.0365663
-0.061009
-0.0829852
-0.10385
-0.123515
-0.141319
-0.156642
-0.170066
-0.182117
-0.192734
-0.201733
-0.209051
-0.215211
-0.220451
-0.2248
-0.228282
-0.230918
-0.232839
-0.234246
-0.235177
-0.235657
-0.235727
-0.235436
-0.234861
-0.234027
-0.232936
-0.231602
-0.230047
0.163653
0.155444
0.147436
0.138503
0.127453
0.115459
0.100662
0.0844603
0.0666909
0.0467876
0.0262954
0.00541203
-0.0161929
-0.037852
-0.0578103
-0.0771953
-0.0958636
-0.113222
-0.128567
-0.142324
-0.154943
-0.166303
-0.17619
-0.184452
-0.191587
-0.197812
-0.203136
-0.207564
-0.211095
-0.213853
-0.216059
-0.217747
-0.21894
-0.219675
-0.219995
-0.219987
-0.219686
-0.219092
-0.218216
-0.217081
0.145138
0.138173
0.131474
0.12414
0.115162
0.105554
0.0936912
0.0806719
0.0663653
0.0501327
0.0331521
0.0156094
-0.00278823
-0.0216872
-0.0394474
-0.057016
-0.0742391
-0.090622
-0.105439
-0.118982
-0.131631
-0.143228
-0.153551
-0.162374
-0.170143
-0.177055
-0.183096
-0.188254
-0.192505
-0.195955
-0.198835
-0.201172
-0.202987
-0.204311
-0.205177
-0.205679
-0.20586
-0.205717
-0.205263
-0.20452
0.129543
0.123501
0.11774
0.111527
0.104004
0.0960571
0.0862824
0.0755693
0.0638168
0.0503923
0.0362034
0.0214115
0.00575728
-0.0106254
-0.0262667
-0.0419663
-0.0575776
-0.0727086
-0.0866616
-0.099628
-0.111928
-0.12338
-0.133773
-0.142825
-0.15093
-0.158255
-0.164769
-0.170443
-0.175232
-0.179221
-0.18264
-0.18551
-0.187846
-0.189673
-0.191016
-0.191967
-0.192577
-0.192842
-0.192774
-0.192392
0.116231
0.110902
0.105847
0.100455
0.0939983
0.0872512
0.0790045
0.0699968
0.0601503
0.0488764
0.0368877
0.0243185
0.0109409
-0.0032519
-0.0169728
-0.030902
-0.0449087
-0.0586938
-0.0716158
-0.0837959
-0.095503
-0.106547
-0.116738
-0.125761
-0.133955
-0.14146
-0.148229
-0.154222
-0.159377
-0.163757
-0.167582
-0.170867
-0.173621
-0.17586
-0.177602
-0.178936
-0.179915
-0.180536
-0.180809
-0.180751
0.104766
0.100006
0.0954994
0.0907349
0.0850869
0.0792372
0.0721415
0.0644247
0.0560267
0.0464156
0.0361621
0.0253785
0.0138669
0.0015347
-0.0105054
-0.0228349
-0.0353406
-0.0478006
-0.0596413
-0.0709362
-0.0819134
-0.0923867
-0.102189
-0.110993
-0.119086
-0.126585
-0.133432
-0.139575
-0.144946
-0.149581
-0.153689
-0.157277
-0.160347
-0.16291
-0.164973
-0.166622
-0.16791
-0.168834
-0.169402
-0.169626
0.0948078
0.0905136
0.0864488
0.0821791
0.0771647
0.0720078
0.0658029
0.0590865
0.0518113
0.0435044
0.0346309
0.0252846
0.0152956
0.004525
-0.00606965
-0.016989
-0.0281378
-0.0393555
-0.0501372
-0.060525
-0.070714
-0.0805294
-0.089828
-0.0982829
-0.106139
-0.113493
-0.120278
-0.126438
-0.131896
-0.136671
-0.140953
-0.144741
-0.148034
-0.150837
-0.153148
-0.155046
-0.156585
-0.157758
-0.158573
-0.159039
0.0860975
0.0821929
0.0784925
0.0746244
0.0701201
0.0655131
0.0600152
0.0540914
0.047704
0.040436
0.032673
0.0244938
0.0157517
0.00628742
-0.00307539
-0.0127699
-0.0227169
-0.0328029
-0.0425886
-0.0520954
-0.0614904
-0.0706133
-0.0793462
-0.0873743
-0.0949037
-0.102013
-0.108635
-0.114707
-0.120151
-0.124966
-0.129329
-0.13323
-0.136664
-0.139631
-0.142122
-0.144208
-0.145942
-0.147314
-0.148332
-0.148996
0.0784317
0.0748587
0.0714652
0.0679309
0.063847
0.0596875
0.0547631
0.0494806
0.0438089
0.0373817
0.0305235
0.0233008
0.0155872
0.00721789
-0.00109823
-0.00973697
-0.0186317
-0.0277033
-0.0365726
-0.0452495
-0.0538782
-0.0623127
-0.0704581
-0.0780186
-0.0851667
-0.0919668
-0.0983508
-0.104258
-0.109607
-0.114386
-0.118754
-0.122695
-0.1262
-0.129266
-0.131876
-0.134096
-0.135973
-0.137497
-0.138674
-0.139499
0.0716489
0.068362
0.0652317
0.0619802
0.0582498
0.0544621
0.0500124
0.0452584
0.0401743
0.0344384
0.028327
0.0218967
0.0150387
0.00759135
0.000166024
-0.00756402
-0.0155418
-0.023714
-0.0317535
-0.0396638
-0.0475714
-0.0553449
-0.062907
-0.0699841
-0.0767225
-0.0831744
-0.0892735
-0.0949614
-0.100158
-0.10484
-0.109151
-0.113073
-0.116592
-0.1197
-0.122379
-0.124683
-0.126658
-0.128292
-0.129589
-0.130538
0.0656179
0.0625811
0.0596799
0.0566725
0.0532443
0.0497713
0.0457214
0.0414104
0.0368166
0.0316574
0.0261704
0.020404
0.0142643
0.007598
0.000934222
-0.00601211
-0.0131923
-0.020571
-0.0278666
-0.0350786
-0.0423182
-0.0494687
-0.0564677
-0.0630645
-0.0693839
-0.0754685
-0.0812547
-0.0866878
-0.0916901
-0.0962322
-0.100441
-0.104297
-0.107783
-0.110888
-0.11359
-0.115938
-0.117971
-0.119678
-0.121059
-0.1221
0.0602324
0.0574165
0.0547174
0.0519235
0.0487573
0.0455552
0.041847
0.037913
0.0337343
0.0290627
0.0241042
0.0189001
0.0133696
0.00736972
0.00136044
-0.00490789
-0.0113932
-0.0180733
-0.0247048
-0.0312855
-0.0379132
-0.0444847
-0.0509497
-0.057081
-0.0629854
-0.0686978
-0.0741585
-0.0793161
-0.0840974
-0.0884682
-0.0925416
-0.0962956
-0.0997115
-0.102777
-0.105467
-0.107823
-0.109881
-0.111628
-0.113064
-0.114168
0.055405
0.052786
0.0502668
0.0476619
0.0447261
0.0417602
0.0383479
0.0347388
0.0309163
0.0266621
0.0221558
0.0174331
0.0124239
0.00699706
0.00155364
-0.00412557
-0.010004
-0.0160685
-0.0221084
-0.0281205
-0.0341912
-0.0402294
-0.046195
-0.051883
-0.057385
-0.0627304
-0.0678632
-0.0727358
-0.0772803
-0.0814596
-0.0853736
-0.0889996
-0.092318
-0.0953148
-0.0979636
-0.100299
-0.102353
-0.104114
-0.105578
-0.106721
0.0510635
0.0486212
0.0462636
0.0438277
0.0410963
0.0383388
0.0351859
0.0318601
0.0283467
0.0244535
0.0203382
0.0160315
0.0114726
0.00654217
0.00159105
-0.00357373
-0.00892013
-0.0144412
-0.0199541
-0.0254551
-0.0310208
-0.0365706
-0.0420732
-0.0473439
-0.0524618
-0.0574516
-0.0622615
-0.0668477
-0.0711478
-0.0751232
-0.0788623
-0.0823423
-0.0855427
-0.0884488
-0.0910336
-0.093326
-0.0953541
-0.0971054
-0.0985751
-0.0997355
0.047147
0.0448644
0.0426532
0.0403697
0.0378211
0.0352492
0.0323258
0.0292496
0.0260074
0.0224297
0.0186555
0.0147115
0.0105448
0.00604742
0.00152731
-0.00318587
-0.00806383
-0.0131038
-0.0181466
-0.0231885
-0.0282971
-0.0334015
-0.0384769
-0.0433579
-0.0481128
-0.0527626
-0.0572595
-0.0615637
-0.0656181
-0.069384
-0.0729392
-0.0762612
-0.0793296
-0.0821289
-0.0846323
-0.0868639
-0.0888479
-0.0905715
-0.0920289
-0.0931891
0.0436043
0.0414667
0.0393889
0.0372439
0.0348602
0.0324552
0.0297364
0.0268819
0.0238798
0.0205801
0.0171061
0.0134809
0.00965838
0.0055414
0.00140098
-0.00291362
-0.00737725
-0.01199
-0.0166126
-0.0212416
-0.0259368
-0.0306355
-0.0353184
-0.0398373
-0.0442516
-0.0485791
-0.0527765
-0.0568071
-0.0606192
-0.0641746
-0.067542
-0.0706994
-0.0736266
-0.076308
-0.0787174
-0.0808745
-0.0828003
-0.0844816
-0.0859118
-0.0870577
0.0403918
0.0383867
0.036431
0.0344125
0.0321787
0.0299248
0.0273898
0.0247337
0.0219457
0.018893
0.0156852
0.0123422
0.00882393
0.00504325
0.00123931
-0.00272159
-0.00681711
-0.011049
-0.0152952
-0.0195524
-0.0238733
-0.028203
-0.0325259
-0.0367096
-0.040806
-0.0448304
-0.0487432
-0.0525114
-0.0560876
-0.0594353
-0.0626147
-0.0656047
-0.0683856
-0.070942
-0.0732486
-0.0753213
-0.0771781
-0.078806
-0.0801975
-0.0813173
0.0374722
0.0355886
0.0337453
0.031843
0.0297459
0.0276297
0.0252612
0.0227839
0.0201881
0.0173564
0.0143861
0.0112948
0.00804728
0.00456555
0.00106129
-0.00258417
-0.00635096
-0.010242
-0.0141501
-0.0180717
-0.0220539
-0.0260476
-0.0300408
-0.0339152
-0.037716
-0.0414565
-0.0451009
-0.0486191
-0.0519681
-0.055113
-0.0581071
-0.06093
-0.0635628
-0.0659905
-0.0681886
-0.0701701
-0.0719503
-0.0735162
-0.07486
-0.0759447
0.0348134
0.0330416
0.0313021
0.0295072
0.0275355
0.0255454
0.0233282
0.0210131
0.0185912
0.0159583
0.0132014
0.0103358
0.0073306
0.00411614
0.000880097
-0.00248296
-0.00595505
-0.0095398
-0.0131429
-0.0167611
-0.020436
-0.0241238
-0.0278153
-0.0314046
-0.0349314
-0.038407
-0.0417992
-0.0450806
-0.0482123
-0.0511616
-0.053975
-0.0566332
-0.0591185
-0.0614162
-0.0635029
-0.065389
-0.0670873
-0.0685852
-0.0698746
-0.0709175
0.0323876
0.0307189
0.0290758
0.0273803
0.0255243
0.0236502
0.0215714
0.0194041
0.0171402
0.0146871
0.0121228
0.00946069
0.00667364
0.00369945
0.000704802
-0.00240423
-0.00561125
-0.00892009
-0.0122473
-0.0155903
-0.0189858
-0.0223948
-0.02581
-0.0291369
-0.03241
-0.035639
-0.038795
-0.0418533
-0.0447787
-0.0475403
-0.0501791
-0.052677
-0.0550171
-0.0571855
-0.0591598
-0.0609482
-0.0625616
-0.0639876
-0.0652179
-0.066214
0.0301705
0.0285975
0.0270439
0.0254409
0.0236919
0.021925
0.0199732
0.0179412
0.0158215
0.013532
0.0111425
0.00866469
0.00607485
0.00331754
0.000541096
-0.00233831
-0.00530584
-0.00836526
-0.0114426
-0.0145354
-0.0176765
-0.020831
-0.023993
-0.0270781
-0.0301165
-0.0331166
-0.0360521
-0.0389009
-0.041631
-0.0442138
-0.0466851
-0.049028
-0.0512267
-0.0532679
-0.0551305
-0.0568207
-0.0583477
-0.0596994
-0.0608677
-0.0618136
0.0281411
0.0266568
0.0251869
0.0236701
0.0220203
0.0203529
0.0185181
0.0166104
0.014623
0.0124828
0.0102526
0.0079426
0.00553187
0.00297112
0.000392508
-0.00227866
-0.00502896
-0.00786202
-0.0107122
-0.0135773
-0.0164863
-0.0194081
-0.0223378
-0.0252001
-0.0280217
-0.0308094
-0.0335394
-0.0361918
-0.0387379
-0.0411509
-0.0434625
-0.0456567
-0.0477187
-0.049636
-0.0513887
-0.0529815
-0.0544219
-0.0556985
-0.0568031
-0.0576968
0.0262807
0.024879
0.0234872
0.0220511
0.0204936
0.0189187
0.0171923
0.0153993
0.0135336
0.0115303
0.00944578
0.00728901
0.00504162
0.00265977
0.00026136
-0.00222037
-0.00477316
-0.00740025
-0.0100434
-0.0127006
-0.0153975
-0.0181062
-0.0208228
-0.0234798
-0.0261008
-0.0286914
-0.0312302
-0.033699
-0.0360721
-0.0383246
-0.0404845
-0.0425369
-0.0444676
-0.046265
-0.0479106
-0.0494077
-0.0507626
-0.0519643
-0.0530046
-0.0538451
0.0245729
0.0232483
0.0219297
0.0205692
0.0190978
0.0176092
0.0159832
0.0142963
0.0125431
0.0106658
0.00871501
0.00669875
0.00460077
0.0023822
0.000148416
-0.00216029
-0.00453275
-0.00697195
-0.00942604
-0.011893
-0.0143957
-0.0169091
-0.0194298
-0.0218976
-0.0243329
-0.0267409
-0.0291018
-0.0313993
-0.0336101
-0.0357114
-0.0377277
-0.039645
-0.0414503
-0.0431326
-0.0446745
-0.0460785
-0.0473496
-0.0484774
-0.0494539
-0.0502411
0.0230032
0.0217506
0.0205008
0.0192113
0.0178204
0.0164126
0.0148798
0.0132916
0.0116425
0.00988128
0.0080537
0.00616667
0.00420592
0.00213693
5.39474e-05
-0.00209636
-0.00430378
-0.00657109
-0.00885203
-0.0111447
-0.0134693
-0.0158032
-0.0181438
-0.0204368
-0.0227006
-0.0249391
-0.0271347
-0.0292724
-0.0313313
-0.0332903
-0.0351711
-0.0369605
-0.0386465
-0.0402186
-0.0416609
-0.0429749
-0.0441647
-0.0452202
-0.0461339
-0.0468684
0.021559
0.0203737
0.0191886
0.0179659
0.0166503
0.0153181
0.0138724
0.0123758
0.0108235
0.00916969
0.00745581
0.00568798
0.00385361
0.00192211
-2.22661e-05
-0.00202716
-0.00408328
-0.00619306
-0.00831509
-0.0104476
-0.0126085
-0.0147775
-0.0169521
-0.0190838
-0.0211887
-0.0232702
-0.0253121
-0.027301
-0.0292178
-0.0310432
-0.0327963
-0.034465
-0.0360377
-0.037505
-0.038852
-0.0400796
-0.0411908
-0.0421764
-0.0430289
-0.0437118
0.0202286
0.0191065
0.0179823
0.0168224
0.0155776
0.0143163
0.012952
0.0115408
0.0100785
0.00852442
0.00691583
0.00525823
0.00354057
0.00173569
-8.09969e-05
-0.00195214
-0.00386924
-0.00583426
-0.00781018
-0.00979535
-0.0118056
-0.0138226
-0.0158441
-0.0178267
-0.0197846
-0.0217204
-0.0236196
-0.0254698
-0.0272539
-0.0289541
-0.0305872
-0.032142
-0.0336077
-0.0349755
-0.0362317
-0.0373766
-0.0384125
-0.0393307
-0.040124
-0.0407569
0.0190019
0.0179391
0.0168722
0.0157717
0.0145933
0.0133988
0.0121105
0.0107792
0.00940092
0.00793952
0.00642863
0.0048732
0.0032635
0.0015755
-0.000123323
-0.00187116
-0.00366016
-0.00549191
-0.00733323
-0.00918257
-0.0110539
-0.0129308
-0.014811
-0.0166557
-0.0184772
-0.0202779
-0.0220445
-0.0237656
-0.0254258
-0.0270088
-0.0285293
-0.0299769
-0.0313417
-0.0326154
-0.0337854
-0.0348515
-0.0358155
-0.0366691
-0.0374055
-0.0379902
0.0178698
0.0168627
0.01585
0.0148054
0.0136895
0.0125579
0.0113408
0.0100843
0.00878455
0.00740949
0.00598951
0.00452898
0.00301937
0.00143944
-0.000150416
-0.00178433
-0.00345507
-0.00516388
-0.006881
-0.00860494
-0.0103481
-0.0120954
-0.0138451
-0.015562
-0.0172573
-0.0189326
-0.0205759
-0.0221768
-0.0237214
-0.0251948
-0.0266098
-0.0279568
-0.0292266
-0.0304114
-0.0314998
-0.0324912
-0.0333867
-0.0341787
-0.0348607
-0.0353993
0.0168239
0.0158694
0.0149078
0.0139161
0.0128591
0.0117868
0.0106366
0.00945012
0.00822389
0.00692941
0.00559412
0.00422191
0.00280523
0.00132538
-0.000163526
-0.001692
-0.00325337
-0.00484857
-0.00645087
-0.00805886
-0.00968345
-0.0113111
-0.0129399
-0.0145386
-0.0161166
-0.0176756
-0.0192042
-0.0206934
-0.0221301
-0.023501
-0.0248172
-0.0260698
-0.0272503
-0.0283516
-0.0293629
-0.0302835
-0.0311141
-0.0318476
-0.0324777
-0.0329723
0.015857
0.014952
0.0140387
0.0130972
0.0120957
0.0110793
0.00999199
0.00887123
0.00771395
0.00649477
0.00523847
0.00394851
0.00261827
0.00123127
-0.000163945
-0.00159465
-0.0030547
-0.00454474
-0.00604074
-0.00754136
-0.00905621
-0.010573
-0.01209
-0.0135789
-0.0150482
-0.016499
-0.0179211
-0.0193061
-0.0206424
-0.0219175
-0.0231412
-0.0243054
-0.0254022
-0.0264249
-0.0273636
-0.0282173
-0.0289866
-0.0296646
-0.0302456
-0.0306983
0.0149624
0.014104
0.0132366
0.0123424
0.0113933
0.0104297
0.00940163
0.00834265
0.00725009
0.00610135
0.00491882
0.00370558
0.00245585
0.00115517
-0.000152945
-0.00149284
-0.00285888
-0.00425143
-0.00564889
-0.00704995
-0.00846309
-0.00987715
-0.0112904
-0.0126775
-0.0140457
-0.015396
-0.0167191
-0.0180073
-0.0192498
-0.0204355
-0.0215728
-0.0226543
-0.0236726
-0.0246214
-0.0254918
-0.0262826
-0.026994
-0.0276197
-0.0281542
-0.0285673
0.0141338
0.0133196
0.0124956
0.0116464
0.0107468
0.00983317
0.00886074
0.00785986
0.00682805
0.00574529
0.00463175
0.0034902
0.00231559
0.00109526
-0.000131749
-0.00138719
-0.00266586
-0.00396791
-0.00527387
-0.00658251
-0.00790126
-0.00922
-0.010537
-0.0118295
-0.0131039
-0.0143608
-0.0155918
-0.0167897
-0.0179449
-0.0190471
-0.0201037
-0.0211078
-0.0220525
-0.0229322
-0.0237385
-0.0244701
-0.025127
-0.0257033
-0.0261939
-0.0265697
0.013366
0.0125935
0.0118107
0.0110041
0.0101513
0.00928491
0.00836494
0.00741873
0.00644403
0.0054231
0.00437416
0.00329968
0.00219528
0.00104987
-0.000101521
-0.00127831
-0.00247569
-0.0036936
-0.00491453
-0.00613727
-0.00736834
-0.00859855
-0.00982622
-0.0110308
-0.0122179
-0.0133879
-0.0145332
-0.0156471
-0.016721
-0.0177453
-0.0187265
-0.0196582
-0.0205341
-0.021349
-0.0220952
-0.0227712
-0.0233769
-0.0239069
-0.0243561
-0.0246968
0.0126538
0.0119207
0.0111771
0.010411
0.0096024
0.00878075
0.00791025
0.00701552
0.00609457
0.00513167
0.00414328
0.00313164
0.00209292
0.00101745
-6.33515e-05
-0.00116679
-0.00228844
-0.00342807
-0.00456987
-0.0057127
-0.00686225
-0.00801015
-0.00915476
-0.0102776
-0.0113835
-0.0124727
-0.0135382
-0.014574
-0.015572
-0.0165236
-0.0174344
-0.0182985
-0.0191101
-0.0198643
-0.0205542
-0.0211782
-0.0217359
-0.0222223
-0.0226327
-0.0229403
0.0119927
0.0112971
0.0105905
0.00986286
0.00909618
0.00831691
0.00749308
0.0066469
0.00577657
0.00486818
0.00393662
0.00298389
0.00200669
0.000996577
-1.82569e-05
-0.00105323
-0.00210426
-0.00317095
-0.00423907
-0.00530747
-0.00638116
-0.00745249
-0.00851985
-0.00956658
-0.010597
-0.011611
-0.0126022
-0.0135651
-0.0144924
-0.0153762
-0.0162214
-0.0170224
-0.017774
-0.0184715
-0.0191087
-0.0196839
-0.0201966
-0.0206421
-0.0210162
-0.0212927
0.0113787
0.0107185
0.0100472
0.00935605
0.00862906
0.00788995
0.00711021
0.00630983
0.00548721
0.00463008
0.00375189
0.00285447
0.00193492
0.000985946
3.28178e-05
-0.000938187
-0.00192329
-0.00292198
-0.0039214
-0.00492045
-0.00592348
-0.00692353
-0.007919
-0.0088949
-0.00985493
-0.0107989
-0.011721
-0.0126161
-0.0134775
-0.014298
-0.0150819
-0.0158241
-0.0165196
-0.0171642
-0.0177521
-0.0182817
-0.0187522
-0.0191596
-0.0194995
-0.0197469
0.0108081
0.0101814
0.00954365
0.00888715
0.00819776
0.00749674
0.00675866
0.00600154
0.00522395
0.00441506
0.00358704
0.00274155
0.0018761
0.000984355
8.8995e-05
-0.000822189
-0.00174571
-0.00268094
-0.00361627
-0.00455063
-0.00548781
-0.00642146
-0.00734999
-0.0082599
-0.00915438
-0.0100332
-0.0108908
-0.0117227
-0.0125227
-0.0132843
-0.0140111
-0.0146984
-0.0153416
-0.0159367
-0.0164785
-0.0169654
-0.0173966
-0.0177682
-0.0180762
-0.0182965
0.0102773
0.00968245
0.00907659
0.00845306
0.00779933
0.00713445
0.00643577
0.00571951
0.00498443
0.00422097
0.00344016
0.00264349
0.00182882
0.000990699
0.000149462
-0.000705738
-0.00157168
-0.00244764
-0.00332313
-0.00419713
-0.00507289
-0.00594464
-0.00681081
-0.00765921
-0.0084926
-0.00931063
-0.0101083
-0.0108813
-0.0116241
-0.0123307
-0.0130042
-0.0136403
-0.0142347
-0.0147837
-0.0152825
-0.0157296
-0.0161241
-0.0164622
-0.0167404
-0.0169353
0.00978336
0.0092187
0.00864313
0.00805097
0.00743105
0.00680047
0.00613908
0.00546146
0.00476653
0.00404589
0.00330951
0.00255876
0.00179181
0.00100396
0.000213469
-0.0005893
-0.00140136
-0.00222193
-0.00304152
-0.00385914
-0.00467759
-0.0054916
-0.00629964
-0.0070907
-0.00786715
-0.00862855
-0.00937031
-0.0100885
-0.0107779
-0.0114333
-0.0120571
-0.0126455
-0.0131943
-0.0137003
-0.0141591
-0.014569
-0.0149292
-0.0152362
-0.0154865
-0.0156578
0.00932337
0.00878737
0.00824063
0.00767829
0.00709046
0.00649245
0.00586635
0.00522528
0.0045683
0.00388804
0.00319351
0.00248598
0.00176389
0.00102321
0.000280324
-0.000473309
-0.00123493
-0.00200369
-0.00277102
-0.00353595
-0.00430089
-0.00506102
-0.00581484
-0.00655242
-0.00727577
-0.00798438
-0.00867404
-0.00934109
-0.00998089
-0.0105885
-0.011166
-0.0117098
-0.0122163
-0.0126822
-0.0131036
-0.0134788
-0.0138071
-0.0140851
-0.0143095
-0.0144589
0.00889475
0.00838596
0.00786664
0.00733268
0.00677529
0.00620822
0.00561554
0.00500906
0.00438797
0.0037458
0.00309072
0.00242388
0.00174398
0.00104759
0.000349397
-0.000358163
-0.00107254
-0.00179282
-0.00251127
-0.00322694
-0.00394189
-0.00465171
-0.00535493
-0.0060426
-0.00671642
-0.00737582
-0.00801692
-0.00863635
-0.00922986
-0.00979289
-0.0103273
-0.0108296
-0.0112966
-0.0117252
-0.0121117
-0.0124548
-0.0127533
-0.0130044
-0.0132047
-0.0133336
0.0084951
0.00801215
0.00751893
0.00701197
0.0064835
0.00594581
0.00538479
0.00481105
0.0042239
0.0036177
0.00299981
0.00237131
0.00173112
0.00107633
0.000420111
-0.000244224
-0.000914309
-0.00158921
-0.00226191
-0.00293151
-0.00359974
-0.00426257
-0.00491857
-0.00555965
-0.00618724
-0.00680073
-0.00739656
-0.00797161
-0.00852198
-0.0090435
-0.0095377
-0.0100014
-0.0104316
-0.0108255
-0.0111797
-0.0114927
-0.0117636
-0.0119896
-0.0121676
-0.0122777
0.00812223
0.00766384
0.00719545
0.00671419
0.00621317
0.00570341
0.00517238
0.00462965
0.00407462
0.00350238
0.00291957
0.00232721
0.00172441
0.00110872
0.000491941
-0.000131821
-0.000760375
-0.00139276
-0.00202264
-0.00264911
-0.00327365
-0.00389259
-0.00450449
-0.00510207
-0.00568651
-0.00625718
-0.00681079
-0.00734447
-0.00785464
-0.00833749
-0.00879426
-0.00922207
-0.00961802
-0.00997963
-0.0103037
-0.0105889
-0.0108342
-0.0110369
-0.0111942
-0.0112871
0.00777414
0.00733907
0.00689433
0.00643752
0.00596258
0.00547936
0.00497676
0.00446339
0.00393877
0.0033986
0.0028489
0.00229063
0.00172305
0.00114412
0.000564414
-2.12491e-05
-0.000610841
-0.00120339
-0.00179315
-0.00237925
-0.00296294
-0.00354083
-0.00411153
-0.00466849
-0.00521265
-0.00574336
-0.00625761
-0.00675273
-0.00722544
-0.00767226
-0.00809419
-0.00848855
-0.0088527
-0.00918428
-0.0094804
-0.00973973
-0.00996127
-0.0101425
-0.0102807
-0.0103577
0.00744896
0.00703607
0.00661384
0.00618031
0.00573014
0.00527214
0.0047965
0.00431095
0.0038151
0.00330524
0.00278681
0.00226069
0.0017263
0.00118193
0.000637098
8.7226e-05
-0.0004658
-0.001021
-0.00157317
-0.00212147
-0.00266692
-0.00320643
-0.00373863
-0.00425763
-0.00476418
-0.00525761
-0.00573515
-0.00619433
-0.00663214
-0.00704539
-0.00743488
-0.00779814
-0.00813272
-0.00843643
-0.00870661
-0.00894198
-0.00914156
-0.00930301
-0.00942362
-0.00948623
0.00714501
0.00675319
0.00635239
0.00594103
0.00551438
0.00508035
0.00463027
0.00417109
0.0037025
0.00322127
0.00273236
0.00223659
0.00173347
0.00122164
0.000709606
0.000193369
-0.000325326
-0.000845498
-0.00136243
-0.00187531
-0.00238497
-0.00288857
-0.00338481
-0.00386834
-0.00433975
-0.00479838
-0.00524169
-0.00566737
-0.00607265
-0.00645463
-0.00681393
-0.00714828
-0.00745538
-0.00773323
-0.00797937
-0.00819258
-0.00837188
-0.00851507
-0.0086196
-0.00866916
0.0068607
0.00648892
0.00610852
0.00571825
0.00531397
0.00490272
0.00447688
0.00404269
0.00359991
0.00314577
0.00268473
0.00221759
0.00174396
0.00126275
0.00078159
0.000296972
-0.000189477
-0.000676785
-0.00116067
-0.00164037
-0.00211651
-0.00258651
-0.00304912
-0.00349949
-0.00393809
-0.00436424
-0.0047756
-0.00517006
-0.00554504
-0.00589789
-0.00622911
-0.00653657
-0.00681817
-0.00707203
-0.00729591
-0.00748863
-0.00764924
-0.00777568
-0.00786552
-0.00790333
0.00659459
0.00624187
0.00588089
0.0055107
0.00512766
0.00473807
0.00433522
0.00392471
0.00350639
0.00307785
0.00264315
0.00220303
0.00175722
0.00130484
0.000852739
0.000397856
-5.82964e-05
-0.00051476
-0.000967656
-0.00141623
-0.00186099
-0.00229955
-0.0027307
-0.00315007
-0.00355801
-0.00395384
-0.0043354
-0.00470073
-0.00504748
-0.00537322
-0.00567831
-0.00596079
-0.00621871
-0.00645035
-0.00665363
-0.00682744
-0.00697086
-0.00708194
-0.00715842
-0.00718574
0.00634532
0.00601073
0.00566825
0.00531718
0.00495432
0.00458532
0.00420428
0.00381622
0.00342106
0.00301674
0.00260692
0.00219232
0.00177275
0.00134752
0.00092278
0.000495867
6.81852e-05
-0.000359323
-0.00078314
-0.00120253
-0.00161789
-0.002027
-0.00242873
-0.00281911
-0.00319839
-0.00356592
-0.00391967
-0.00425785
-0.0045783
-0.00487879
-0.00515957
-0.00541884
-0.00565479
-0.00586584
-0.00605008
-0.00620646
-0.00633407
-0.00643113
-0.00649549
-0.0065135
0.00611169
0.00579433
0.00546946
0.00513658
0.00479291
0.00444348
0.00408312
0.00371635
0.00334313
0.00296171
0.00257541
0.00218491
0.00179009
0.00139044
0.000991468
0.000590871
0.000189954
-0.000210364
-0.000606892
-0.000998911
-0.0013867
-0.00176824
-0.00214243
-0.0025057
-0.00285821
-0.0031993
-0.00352711
-0.00383997
-0.0041359
-0.00441288
-0.00467105
-0.00490876
-0.00512434
-0.00531632
-0.00548296
-0.00562327
-0.00573639
-0.00582064
-0.00587404
-0.00588383
0.00589253
0.00559157
0.00528345
0.00496789
0.00464244
0.00431162
0.00397088
0.00362429
0.00327186
0.00291211
0.00254804
0.0021803
0.00180883
0.00143328
0.00105859
0.000682758
0.000307005
-6.77743e-05
-0.000438679
-0.000805011
-0.00116696
-0.00152267
-0.00187109
-0.002209
-0.00253647
-0.00285287
-0.00315647
-0.00344572
-0.00371881
-0.00397389
-0.00421103
-0.00442871
-0.00462539
-0.00479971
-0.00495009
-0.00507559
-0.00517541
-0.005248
-0.00529151
-0.00529407
0.00568679
0.00540142
0.00510926
0.00481018
0.00450205
0.0041889
0.00386678
0.00353933
0.00320659
0.00286734
0.00252428
0.00217804
0.00182861
0.00147578
0.00112396
0.000771436
0.000419348
6.85646e-05
-0.000278274
-0.000620501
-0.000958219
-0.00128973
-0.00161403
-0.00192821
-0.00223227
-0.00252559
-0.00280659
-0.00307382
-0.00332562
-0.00356031
-0.00377789
-0.00397695
-0.00415609
-0.00431405
-0.0044494
-0.00456126
-0.00464888
-0.00471083
-0.00474543
-0.00474163
0.00549349
0.00522295
0.00494598
0.00466258
0.0043709
0.00407455
0.00377008
0.00346078
0.00314671
0.00282684
0.00250365
0.00217772
0.0018491
0.00151768
0.00118741
0.000856833
0.000527005
0.000198774
-0.000125459
-0.00044506
-0.00076006
-0.0010689
-0.00137062
-0.00166258
-0.00194475
-0.0022165
-0.00247639
-0.00272308
-0.00295503
-0.00317071
-0.00337008
-0.00355183
-0.00371469
-0.0038575
-0.00397894
-0.00407823
-0.00415465
-0.0042069
-0.00423344
-0.00422407
0.00531174
0.00505529
0.00479277
0.00452429
0.00424824
0.00396786
0.00368014
0.00338803
0.00309164
0.00279012
0.00248571
0.00217897
0.00187
0.00155876
0.0012488
0.000938887
0.000630005
0.000322974
1.99733e-05
-0.000278387
-0.000572079
-0.00085967
-0.00114024
-0.00141141
-0.00167309
-0.00192468
-0.00216485
-0.00239235
-0.00260579
-0.00280376
-0.00298616
-0.00315182
-0.00329955
-0.00342831
-0.00353689
-0.00362456
-0.00369068
-0.00373406
-0.00375331
-0.003739
0.00514067
0.00489763
0.00464886
0.00439457
0.00413337
0.00386816
0.00359632
0.00332052
0.00304088
0.00275672
0.00247007
0.00218146
0.00189104
0.00159882
0.00130801
0.00101755
0.000728377
0.000441278
0.000158225
-0.000120191
-0.000393896
-0.000661567
-0.000922322
-0.00117402
-0.00141652
-0.00164926
-0.00187099
-0.00208059
-0.00227675
-0.00245819
-0.00262479
-0.00277546
-0.00290914
-0.00302484
-0.00312149
-0.00319842
-0.00325505
-0.00329029
-0.0033029
-0.00328418
0.00497952
0.00474922
0.00451353
0.00427274
0.00402564
0.00377483
0.00351806
0.00325772
0.00299396
0.00272622
0.00245636
0.00218488
0.00191196
0.00163768
0.00136492
0.00109279
0.000822163
0.000553799
0.00028949
2.98039e-05
-0.000225144
-0.000474133
-0.000716324
-0.000949777
-0.00117433
-0.00138943
-0.00159393
-0.00178679
-0.00196681
-0.00213283
-0.00228469
-0.00242141
-0.00254199
-0.00264556
-0.00273113
-0.00279811
-0.00284595
-0.00287369
-0.0028802
-0.00285749
0.00482754
0.00460936
0.00438612
0.00415816
0.00392446
0.00368733
0.00344485
0.00319916
0.00295043
0.00269823
0.00244424
0.00218895
0.00193256
0.0016752
0.00141945
0.00116458
0.000911404
0.000660655
0.000413962
0.00017187
-6.54727e-05
-0.000296937
-0.000521726
-0.000738086
-0.00094583
-0.00114442
-0.0013328
-0.00151001
-0.00167496
-0.00182657
-0.00196468
-0.00208838
-0.00219676
-0.00228901
-0.00236428
-0.00242199
-0.00246167
-0.00248246
-0.00248334
-0.00245694
0.00468409
0.00447742
0.00426601
0.00405025
0.00382927
0.00360513
0.0033762
0.00314439
0.0029099
0.0026724
0.00243341
0.00219342
0.00195263
0.00171122
0.00147151
0.0012329
0.000996151
0.000761966
0.000531831
0.000306268
8.54549e-05
-0.000129568
-0.000338044
-0.000538383
-0.000730376
-0.000913507
-0.00108681
-0.00124938
-0.00140023
-0.00153838
-0.00166364
-0.00177518
-0.00187217
-0.00195387
-0.00201951
-0.00206859
-0.00210066
-0.00211495
-0.00211057
-0.0020807
0.00454852
0.00435279
0.00415263
0.00394846
0.00373955
0.00352775
0.00331166
0.00309301
0.002872
0.00264841
0.0024236
0.00219806
0.00197199
0.00174563
0.00152104
0.00129774
0.00107646
0.00085785
0.000643281
0.000433249
0.000227956
2.83604e-05
-0.000164817
-0.000350135
-0.00052737
-0.000696023
-0.000855205
-0.00100408
-0.00114174
-0.00126729
-0.00138053
-0.0014807
-0.00156703
-0.00163888
-0.00169552
-0.0017365
-0.00176144
-0.00176962
-0.00176027
-0.0017271
0.00442026
0.00423492
0.00404545
0.00385229
0.00365484
0.00345475
0.00325083
0.00304464
0.00283641
0.00262596
0.00241456
0.00220266
0.0019905
0.00177832
0.00156798
0.00135911
0.00115238
0.000948425
0.000748488
0.00055305
0.00036233
0.000177216
-1.61145e-06
-0.000172843
-0.00033624
-0.000491329
-0.000637286
-0.000773337
-0.000898647
-0.0010124
-0.00111438
-0.0012039
-0.00128027
-0.00134286
-0.00139106
-0.00142445
-0.00144266
-0.00144508
-0.001431
-0.0013946
0.00429876
0.00412329
0.00394398
0.00376128
0.0035747
0.00338572
0.00319333