/*--------------------------------*- C++ -*----------------------------------*\
| =========                 |                                                 |
| \\      /  F ield         | OpenFOAM: The Open Source CFD Toolbox           |
|  \\    /   O peration     | Version:  3.0.1                                 |
|   \\  /    A nd           | Web:      www.OpenFOAM.org                      |
|    \\/     M anipulation  |                                                 |
\*---------------------------------------------------------------------------*/
FoamFile
{
    version     2.0;
    format      ascii;
    class       surfaceScalarField;
    location    "500";
    object      phi;
}
// * * * * * * * * * * * * * * * * * * * * * * * * * * * * * * * * * * * * * //

dimensions      [0 3 -1 0 0 0 0];

internalField   nonuniform List<scalar> 
115520
(
0.00852102
-0.00215637
-0.00636465
0.0102331
-0.00171212
0.011153
-0.000919859
0.0116335
-0.000480535
0.0118019
-0.000168305
0.0117916
1.02368e-05
0.0116985
9.30706e-05
0.0115836
0.000114909
0.011459
0.00012461
0.011379
8.00675e-05
0.0113516
2.73728e-05
0.0113528
-1.15508e-06
0.0113802
-2.74394e-05
0.0114642
-8.39754e-05
0.011573
-0.000108873
0.0116961
-0.000123017
0.0118279
-0.000131834
0.0119761
-0.0001482
0.0121351
-0.000158981
0.0122921
-0.000157059
0.0124441
-0.000151982
0.0125887
-0.000144532
0.0127329
-0.000144231
0.0128704
-0.000137547
0.0129962
-0.000125743
0.0131091
-0.000112953
0.0132084
-9.92892e-05
0.0132958
-8.74018e-05
0.0133737
-7.78652e-05
0.0134352
-6.15334e-05
0.0134798
-4.45728e-05
0.0135066
-2.67452e-05
0.0135139
-7.31285e-06
0.0134987
1.51969e-05
0.0134389
5.97478e-05
0.0133415
9.74114e-05
0.0132246
0.000116873
0.0131051
0.000119503
0.0130015
0.000103679
7.44541e-05
0.012927
0.00493421
-0.00336625
-0.00372433
0.00604572
-0.00282363
0.0070804
-0.00195453
0.0080079
-0.00140803
0.00879908
-0.000959485
0.00947569
-0.000666366
0.0100459
-0.000477152
0.010523
-0.000362166
0.0109064
-0.000258828
0.0112328
-0.00024628
0.0115193
-0.000259126
0.0117639
-0.000245806
0.0119774
-0.000240877
0.0122025
-0.000309122
0.0124164
-0.000322805
0.0126184
-0.000324972
0.01281
-0.000323459
0.0130078
-0.000345986
0.0132074
-0.000358561
0.013398
-0.00034766
0.0135792
-0.000333149
0.0137498
-0.000315176
0.0139211
-0.000315524
0.0140847
-0.000301141
0.0142354
-0.000276463
0.0143725
-0.000250014
0.0144951
-0.000221855
0.0146056
-0.000197969
0.0147076
-0.000179876
0.0147936
-0.000147519
0.0148636
-0.000114538
0.0149179
-8.10251e-05
0.0149578
-4.72513e-05
0.0149879
-1.4885e-05
0.0150072
4.04609e-05
0.0150119
9.26934e-05
0.0150018
0.000126984
0.0149772
0.000144085
0.0149387
0.000142222
0.00012072
0.0148924
0.00446794
-0.00441471
-0.00341948
0.00547968
-0.00383538
0.00644514
-0.00291999
0.00737504
-0.00233793
0.00818574
-0.00177018
0.00895153
-0.00143216
0.00960055
-0.00112617
0.0101748
-0.000936438
0.0106913
-0.000775309
0.0111341
-0.000689052
0.0115221
-0.000647157
0.0118701
-0.000593757
0.0121822
-0.000553011
0.0124698
-0.000596751
0.0127385
-0.000591473
0.0129908
-0.000577297
0.0132294
-0.000561998
0.0134616
-0.000578246
0.0136873
-0.0005842
0.0139023
-0.000562668
0.0141068
-0.00053768
0.0143005
-0.000508906
0.0144886
-0.00050356
0.0146663
-0.000478852
0.0148307
-0.000440923
0.0149815
-0.00040074
0.0151179
-0.000358272
0.015241
-0.000321052
0.0153519
-0.000290784
0.0154461
-0.000241748
0.0155233
-0.000191707
0.015583
-0.000140707
0.0156246
-8.8843e-05
0.0156489
-3.92528e-05
0.0156566
3.27572e-05
0.0156466
0.000102726
0.0156208
0.00015278
0.0155806
0.000184285
0.0155254
0.000197434
0.0001919
0.0154542
0.00395723
-0.00529514
-0.00307679
0.0048358
-0.00471395
0.00570583
-0.00379001
0.00657539
-0.00320749
0.00738459
-0.00257938
0.00817748
-0.00222504
0.00889284
-0.00184153
0.00955295
-0.00159654
0.0101668
-0.00138918
0.0107152
-0.0012374
0.0112104
-0.00114243
0.0116641
-0.00104739
0.0120766
-0.00096548
0.0124514
-0.000971579
0.0127978
-0.000937913
0.0131187
-0.000898195
0.0134166
-0.000859877
0.0136983
-0.000859894
0.0139658
-0.000851704
0.0142173
-0.000814201
0.0144534
-0.000773816
0.0146745
-0.000729984
0.0148859
-0.000714963
0.0150844
-0.000677338
0.0152676
-0.000624111
0.0154351
-0.000568245
0.0155865
-0.00050969
0.0157231
-0.000457637
0.0158464
-0.000414056
0.0159521
-0.000347504
0.01604
-0.00027958
0.0161096
-0.000210319
0.0161606
-0.000139797
0.0161938
-7.24876e-05
0.0162094
1.71734e-05
0.0162051
0.000107036
0.0161816
0.00017621
0.0161401
0.000225866
0.0160808
0.000256664
0.000269066
0.0160037
0.00373016
-0.00610607
-0.00291924
0.00454379
-0.00552758
0.00535544
-0.00460167
0.00617781
-0.00402986
0.00696332
-0.00336489
0.00775248
-0.0030142
0.00848757
-0.00257662
0.00918538
-0.00229435
0.00985361
-0.00205741
0.0104641
-0.00184788
0.0110251
-0.00170341
0.0115494
-0.0015717
0.0120353
-0.00145142
0.0124747
-0.00141093
0.0128824
-0.00134562
0.0132614
-0.00127723
0.0136134
-0.00121191
0.013941
-0.0011874
0.0142476
-0.00115835
0.0145345
-0.00110113
0.0148026
-0.00104187
0.0150524
-0.000979799
0.0152873
-0.000949839
0.0155061
-0.000896118
0.0157076
-0.00082562
0.0158917
-0.000752336
0.0160581
-0.000676155
0.0162078
-0.000607306
0.0163417
-0.000547947
0.0164569
-0.000462728
0.0165532
-0.000375825
0.0166301
-0.000287288
0.0166875
-0.000197196
0.0167261
-0.000111048
0.016746
-2.77682e-06
0.0167456
0.000107468
0.016725
0.000196847
0.0166844
0.000266454
0.0166239
0.000317156
0.000349727
0.0165432
0.00357498
-0.0068762
-0.00280485
0.00434935
-0.00630195
0.00512437
-0.00537668
0.00591152
-0.00481701
0.00667552
-0.00412889
0.00744979
-0.00378847
0.00818775
-0.00331459
0.00890191
-0.0030085
0.00959859
-0.0027541
0.0102493
-0.00249863
0.0108583
-0.00231234
0.0114364
-0.00214981
0.0119805
-0.00199548
0.0124763
-0.00190682
0.0129399
-0.00180918
0.0133734
-0.00171072
0.0137775
-0.00161599
0.0141517
-0.00156163
0.0145002
-0.00150685
0.0148256
-0.00142655
0.0151288
-0.001345
0.0154103
-0.00126134
0.0156723
-0.00121187
0.0159151
-0.00113891
0.0161383
-0.00104878
0.0163418
-0.000955867
0.0165257
-0.000860001
0.0166905
-0.000772188
0.0168374
-0.000694833
0.0169642
-0.000589538
0.0170707
-0.000482316
0.0171567
-0.000373226
0.0172218
-0.000262361
0.0172669
-0.000156128
0.0172922
-2.80898e-05
0.0172962
0.000103482
0.0172788
0.00021422
0.0172402
0.000305139
0.0171802
0.000377143
0.000431135
0.0170988
0.00348704
-0.0076281
-0.00273514
0.0042426
-0.00705751
0.00499873
-0.00613281
0.00576545
-0.00558373
0.00651564
-0.00487908
0.00727744
-0.00455027
0.00801337
-0.00405052
0.00873372
-0.00372885
0.00944447
-0.00346484
0.0101193
-0.00317343
0.0107599
-0.002953
0.0113759
-0.00276579
0.0119633
-0.00258285
0.0125041
-0.00244767
0.013014
-0.00231905
0.0134944
-0.00219116
0.0139451
-0.00206668
0.0143628
-0.00197935
0.0147516
-0.0018956
0.015115
-0.00178996
0.0154536
-0.00168362
0.015768
-0.0015757
0.0160587
-0.00150257
0.0163272
-0.00140739
0.0165738
-0.00129536
0.0167985
-0.00118065
0.0170016
-0.00106303
0.0171833
-0.000953953
0.0173446
-0.000856115
0.0174842
-0.000729165
0.017602
-0.00060012
0.0176979
-0.00046905
0.0177716
-0.000336053
0.0178237
-0.000208237
0.0178545
-5.89592e-05
0.017863
9.50554e-05
0.0178489
0.000228334
0.0178122
0.000341825
0.0177529
0.000436424
0.000513045
0.017671
0.00343822
-0.00837457
-0.00269175
0.00418758
-0.00780686
0.00493701
-0.00688224
0.00569481
-0.00634153
0.00643962
-0.00562389
0.00719484
-0.00530549
0.00793041
-0.00478609
0.00865495
-0.0044534
0.00937403
-0.00418393
0.0100647
-0.00386413
0.0107276
-0.00361587
0.0113707
-0.00340893
0.0119902
-0.00320227
0.0125667
-0.00302418
0.0131145
-0.00286686
0.0136345
-0.00271113
0.0141255
-0.00255774
0.0145825
-0.00243632
0.0150088
-0.0023219
0.0154084
-0.00218958
0.0157815
-0.00205674
0.0161284
-0.0019226
0.0164484
-0.0018225
0.0167436
-0.00170257
0.0170148
-0.00156656
0.0172621
-0.00142798
0.0174856
-0.00128658
0.0176857
-0.001154
0.0178628
-0.00103325
0.0180166
-0.000882978
0.018147
-0.000730503
0.0182539
-0.000575903
0.0183371
-0.000419287
0.0183972
-0.000268287
0.0184344
-9.62065e-05
0.0184479
8.15144e-05
0.0184377
0.000238616
0.0184035
0.000375979
0.0183455
0.000494456
0.000594923
0.0182636
0.00341828
-0.00912447
-0.00266838
0.00417031
-0.00855889
0.00492184
-0.00763377
0.00567963
-0.00709932
0.00642634
-0.0063706
0.00718147
-0.00606062
0.00792055
-0.00552517
0.00865089
-0.00518374
0.00937758
-0.00491062
0.010081
-0.00456759
0.0107613
-0.00429613
0.0114253
-0.00407294
0.0120694
-0.00384637
0.0126746
-0.00362941
0.0132536
-0.0034458
0.0138066
-0.00326416
0.0143321
-0.00308326
0.0148237
-0.00292791
0.015284
-0.00278224
0.0157171
-0.00262263
0.0161227
-0.0024623
0.0165007
-0.00230065
0.0168493
-0.00217113
0.0171711
-0.00202438
0.0174672
-0.00186262
0.0177376
-0.00169834
0.0179823
-0.0015313
0.0182014
-0.00137312
0.0183953
-0.00122715
0.0185642
-0.00105188
0.0187081
-0.000874347
0.0188268
-0.000694624
0.0189203
-0.000512838
0.018989
-0.000336987
0.0190333
-0.000140458
0.0190525
6.23223e-05
0.0190465
0.0002446
0.0190153
0.000407183
0.0189589
0.000550865
0.000676454
0.0188774
0.00341957
-0.00988401
-0.00266003
0.00418059
-0.00931991
0.00494064
-0.00839382
0.00570513
-0.00786381
0.00645966
-0.00712514
0.00722049
-0.00682145
0.00796739
-0.00627207
0.00870656
-0.0059229
0.00944248
-0.00564654
0.0101586
-0.00528368
0.0108546
-0.00499215
0.0115365
-0.00475487
0.0122012
-0.004511
0.0128307
-0.0042589
0.013436
-0.00405113
0.0140172
-0.00384534
0.0145723
-0.00363843
0.0150944
-0.00344998
0.0155854
-0.00327318
0.0160489
-0.00308615
0.0164844
-0.00289787
0.0168917
-0.00270792
0.0172679
-0.00254727
0.0176156
-0.00237212
0.0179361
-0.00218314
0.0182294
-0.0019916
0.0184954
-0.00179729
0.0187339
-0.00161162
0.018945
-0.0014383
0.0191296
-0.00123643
0.0192874
-0.00103222
0.0194186
-0.000825781
0.019523
-0.000617257
0.0196009
-0.000414875
0.0196527
-0.000192228
0.019678
3.70214e-05
0.0196767
0.000245882
0.0196488
0.000435079
0.0195943
0.000605336
0.000757382
0.0195134
0.00343747
-0.0106579
-0.00266362
0.00421227
-0.0100947
0.0049857
-0.00916725
0.00576208
-0.00864018
0.00652918
-0.00789223
0.00730061
-0.00759288
0.00805936
-0.00703082
0.00881064
-0.00667419
0.00955837
-0.00639426
0.0102884
-0.0060137
0.0110004
-0.00570413
0.0116995
-0.00545395
0.0123828
-0.00519438
0.0130342
-0.00491025
0.013663
-0.00467994
0.014269
-0.00445139
0.0148504
-0.00421978
0.0153997
-0.00399931
0.0159184
-0.00379184
0.0164097
-0.0035775
0.0168729
-0.00336108
0.0173074
-0.00314238
0.0177096
-0.00294947
0.0180822
-0.00274473
0.0184264
-0.00252734
0.018742
-0.00230722
0.019029
-0.00208423
0.0192868
-0.0018694
0.0195153
-0.00166684
0.0197157
-0.00143681
0.0198878
-0.00120437
0.0200317
-0.000969667
0.0201473
-0.000732856
0.0202347
-0.00050228
0.0202943
-0.000251851
0.0203261
5.31064e-06
0.0203297
0.000242192
0.0203054
0.000459431
0.0202531
0.000657671
0.000837557
0.0201729
0.00346886
-0.0114497
-0.00267702
0.00426121
-0.0108871
0.00505187
-0.00995791
0.00584424
-0.00943255
0.00662776
-0.00867576
0.00741387
-0.00837899
0.00818803
-0.00780498
0.00895461
-0.00744077
0.00971694
-0.00715658
0.0104629
-0.00675963
0.011192
-0.00643324
0.0119087
-0.00617064
0.0126105
-0.00589621
0.0132827
-0.00558247
0.0139335
-0.00533073
0.0145625
-0.00508041
0.0151678
-0.00482505
0.0157421
-0.00457364
0.0162863
-0.00433605
0.0168034
-0.00409453
0.0172922
-0.00384993
0.0177521
-0.00360222
0.0181789
-0.00337633
0.0185753
-0.00314109
0.0189422
-0.00289431
0.0192795
-0.00264448
0.0195868
-0.00239156
0.0198635
-0.00214611
0.0201093
-0.00191263
0.0203255
-0.00165298
0.020512
-0.00139084
0.0206687
-0.00112636
0.0207955
-0.000859748
0.0208926
-0.000599356
0.0209603
-0.000319501
0.0209986
-3.29686e-05
0.0210074
0.00023339
0.0209867
0.000480122
0.0209366
0.000707784
0.00091693
0.0208572
0.00351159
-0.0122626
-0.00269873
0.00432461
-0.0117001
0.00513566
-0.010769
0.00594739
-0.0102443
0.00675055
-0.00947892
0.00755476
-0.0091832
0.00834745
-0.00859767
0.00913223
-0.00822556
0.00991189
-0.00793625
0.0106759
-0.00752364
0.0114238
-0.0071811
0.0121592
-0.0069061
0.0128801
-0.0066171
0.0135732
-0.00627555
0.0142455
-0.00600306
0.0148966
-0.00573152
0.0155246
-0.00545302
0.0161225
-0.00517157
0.0166908
-0.00490434
0.017232
-0.00463574
0.017745
-0.0043629
0.0182287
-0.00408596
0.018679
-0.00382661
0.0190981
-0.00356015
0.0194869
-0.00328311
0.019845
-0.0030026
0.0201721
-0.00271865
0.0204673
-0.0024413
0.02073
-0.00217538
0.0209618
-0.00188474
0.0211624
-0.00159148
0.0213318
-0.00129578
0.02147
-0.000997896
0.0215767
-0.000706111
0.0216525
-0.000395219
0.0216973
-7.78508e-05
0.0217113
0.000219454
0.0216943
0.000497145
0.0216464
0.000755688
0.000995543
0.0215677
0.00356418
-0.013099
-0.00272769
0.00440051
-0.0125364
0.00523466
-0.0116031
0.00606861
-0.0110782
0.00689416
-0.0103045
0.00771942
-0.0100085
0.00853337
-0.00941162
0.00933898
-0.00903117
0.0101385
-0.00873581
0.0109228
-0.00830791
0.0116912
-0.00794951
0.012447
-0.00766182
0.013188
-0.00735816
0.0139026
-0.00699009
0.0145966
-0.00669713
0.0152697
-0.0064046
0.0159199
-0.00610324
0.0165408
-0.00579239
0.0171323
-0.00549588
0.0176967
-0.00520016
0.0182328
-0.00489896
0.0187394
-0.00459255
0.0192121
-0.00429937
0.019653
-0.00400105
0.0200629
-0.00369298
0.0204412
-0.00338088
0.0207874
-0.00306488
0.0211006
-0.00275447
0.02138
-0.00245475
0.021627
-0.00213182
0.0218416
-0.00180607
0.0220236
-0.00147775
0.0221729
-0.00114716
0.0222892
-0.000822449
0.0223729
-0.000478944
0.0224244
-0.000129272
0.0224434
0.000200454
0.0224299
0.000510582
0.0223841
0.000801483
0.00107352
0.0223061
0.00362556
-0.0139615
-0.00276312
0.00448756
-0.0133984
0.00534719
-0.0124627
0.00620586
-0.0119369
0.00705624
-0.0111548
0.00790514
-0.0108574
0.0087428
-0.0102493
0.00957163
-0.00986
0.0103935
-0.00955765
0.0112001
-0.00911457
0.011991
-0.00874034
0.0127686
-0.00843946
0.0135312
-0.00812079
0.0142682
-0.00772706
0.0149847
-0.00741363
0.0156801
-0.00710003
0.0163527
-0.00677582
0.0169963
-0.00643598
0.0176107
-0.00611034
0.0181979
-0.00578733
0.0187565
-0.00545752
0.0192852
-0.00512133
0.0197798
-0.00479398
0.020242
-0.00446319
0.0206723
-0.00412332
0.0210702
-0.00377876
0.0214351
-0.00342975
0.0217658
-0.00308517
0.0220614
-0.00275039
0.0223235
-0.00239391
0.0225518
-0.00203435
0.0227461
-0.00167205
0.0229063
-0.00130734
0.023032
-0.000948209
0.0231236
-0.000570543
0.0231815
-0.000187096
0.0232054
0.000176533
0.0231954
0.000520588
0.0231515
0.000845339
0.00115105
0.023074
0.00369496
-0.014852
-0.00280444
0.00458479
-0.0142883
0.00547207
-0.01335
0.00635773
-0.0128226
0.00723513
-0.0120322
0.00811
-0.0117322
0.0089736
-0.0111129
0.00982786
-0.0107143
0.0106742
-0.010404
0.0115053
-0.00994565
0.0123204
-0.00955542
0.0131216
-0.00924072
0.0139073
-0.00890651
0.0146679
-0.00848765
0.0154078
-0.00815352
0.0161263
-0.00781855
0.0168218
-0.00747124
0.0174884
-0.00710258
0.0181258
-0.00674779
0.0187356
-0.00639715
0.0193165
-0.00603837
0.0198671
-0.00567196
0.0203832
-0.00531009
0.0208662
-0.0049462
0.0213167
-0.00457374
0.0217337
-0.00419585
0.0221169
-0.00381287
0.0224647
-0.00343305
0.0227764
-0.00306203
0.0230532
-0.00267075
0.023295
-0.00227609
0.0235013
-0.00187844
0.0236722
-0.00147822
0.0238072
-0.0010832
0.0239065
-0.000669844
0.0239706
-0.000251141
0.0239992
0.000147883
0.0239924
0.000527368
0.0239503
0.000887482
0.00122839
0.023873
0.00377182
-0.0157726
-0.00285123
0.0046915
-0.0152079
0.00560846
-0.014267
0.00652322
-0.0137373
0.0074297
-0.0129387
0.00833268
-0.0126352
0.00922431
-0.0120045
0.010106
-0.011596
0.0109789
-0.0112769
0.0118364
-0.0108031
0.0126775
-0.0103966
0.0135042
-0.0100673
0.0143146
-0.00971692
0.0151001
-0.00927317
0.0158645
-0.00891794
0.0166071
-0.00856113
0.0173261
-0.00819028
0.0180163
-0.00779277
0.0186771
-0.00740862
0.0193099
-0.00702986
0.0199131
-0.00664161
0.0204856
-0.00624445
0.0210231
-0.00584761
0.0215268
-0.00544992
0.0219971
-0.00504404
0.0224332
-0.00463191
0.0228343
-0.00421398
0.0231991
-0.00379787
0.0235265
-0.00338945
0.0238179
-0.00296213
0.0240729
-0.00253106
0.0242912
-0.00209672
0.0244725
-0.0016596
0.0246166
-0.00122721
0.0247234
-0.000776655
0.0247934
-0.000321203
0.0248266
0.000114726
0.0248228
0.000531163
0.0247821
0.00092817
0.00130582
0.0247047
0.00385574
-0.0167252
-0.00290317
0.0048072
-0.0161594
0.00575579
-0.0152156
0.00670163
-0.0146831
0.00763914
-0.0138762
0.00857228
-0.0135684
0.00949389
-0.0129261
0.0104051
-0.0125071
0.0113065
-0.0121783
0.0121922
-0.0116888
0.0130612
-0.0112656
0.0139149
-0.010921
0.0147516
-0.0105537
0.0155635
-0.0100851
0.0163537
-0.00970815
0.0171214
-0.00932888
0.0178651
-0.00893392
0.0185796
-0.00850731
0.0192644
-0.00809344
0.0199205
-0.00768595
0.0205465
-0.00726757
0.021141
-0.00683899
0.0217001
-0.00640666
0.0222246
-0.00597442
0.0227148
-0.00553422
0.0231697
-0.00508689
0.0235887
-0.00463298
0.0239704
-0.00417951
0.0243135
-0.00373253
0.0246192
-0.0032679
0.0248873
-0.0027991
0.0251173
-0.00232671
0.025309
-0.00185128
0.0254618
-0.00138007
0.0255759
-0.000890787
0.0256518
-0.00039707
0.0256892
7.72955e-05
0.0256882
0.00053223
0.0256487
0.000967691
0.00138364
0.0255708
0.00394646
-0.0177116
-0.00296004
0.00493159
-0.0171445
0.00591368
-0.0161977
0.00689253
-0.015662
0.00786295
-0.0148467
0.00882819
-0.0145336
0.00978169
-0.0138796
0.0107242
-0.0134496
0.0116561
-0.0131102
0.0125718
-0.0126045
0.0134704
-0.0121641
0.0143529
-0.0118035
0.0152175
-0.0114183
0.0160572
-0.0109247
0.0168746
-0.0105255
0.0176687
-0.010123
0.0184381
-0.00970324
0.0191779
-0.00924714
0.0198875
-0.00880304
0.0205676
-0.00836607
0.0212168
-0.00791681
0.0218339
-0.00745602
0.0224148
-0.00698757
0.0229603
-0.00651994
0.0234705
-0.00604443
0.0239445
-0.00556088
0.0243814
-0.00506991
0.0247799
-0.00457796
0.0251386
-0.00409124
0.0254587
-0.00358801
0.0257397
-0.00308015
0.0259813
-0.0025683
0.0261832
-0.00205312
0.0263447
-0.00154161
0.026466
-0.00101206
0.0265475
-0.000478537
0.0265889
3.58255e-05
0.0265903
0.000530836
0.0265517
0.00100634
0.0014622
0.0264731
0.0040438
-0.0187337
-0.00302168
0.00506443
-0.0181652
0.00608189
-0.0172151
0.00709563
-0.0166757
0.00810083
-0.0158519
0.00910007
-0.0155328
0.0100873
-0.0148669
0.011063
-0.0144253
0.0120272
-0.0140745
0.0129748
-0.0135522
0.0139047
-0.013094
0.0148176
-0.0127164
0.0157119
-0.0123126
0.0165808
-0.0117937
0.0174267
-0.0113714
0.0182486
-0.0109449
0.0190448
-0.0104994
0.019811
-0.0100133
0.0205463
-0.00953834
0.0212512
-0.00907102
0.0219244
-0.00859001
0.0225645
-0.00809613
0.0231678
-0.0075908
0.0237347
-0.00708685
0.0242652
-0.00657499
0.0247585
-0.00605411
0.0252135
-0.00552493
0.0256289
-0.00499333
0.0260033
-0.00446564
0.0263377
-0.00392247
0.0266317
-0.00337415
0.0268849
-0.00282144
0.0270968
-0.00226504
0.0272669
-0.00171171
0.0273952
-0.00114034
0.027482
-0.000565417
0.0275273
-9.45762e-06
0.0275309
0.000527243
0.0274928
0.00104442
0.00154183
0.0274132
0.00414764
-0.0197934
-0.00308798
0.00520563
-0.0192232
0.00626029
-0.0182698
0.0073108
-0.0177262
0.00835261
-0.0168937
0.00938773
-0.016568
0.0104106
-0.0158897
0.0114212
-0.0154359
0.0124196
-0.0150728
0.0134008
-0.0145334
0.0143637
-0.014057
0.0153088
-0.0136614
0.0162343
-0.0132381
0.0171341
-0.0126935
0.01801
-0.0122473
0.0188609
-0.0117958
0.0196853
-0.0113238
0.020479
-0.010807
0.021241
-0.0103004
0.0219717
-0.00980174
0.0226697
-0.009288
0.0233336
-0.00876002
0.0239598
-0.00821698
0.0245486
-0.00767567
0.0250999
-0.00712632
0.0256127
-0.00656693
0.0260861
-0.00599832
0.0265186
-0.00542582
0.0269089
-0.00485591
0.0272578
-0.00427139
0.0275648
-0.00368118
0.0278295
-0.0030861
0.0280514
-0.00248697
0.02823
-0.00189027
0.0283651
-0.00127548
0.0284572
-0.000657541
0.0285061
-5.83416e-05
0.0285117
0.000521707
0.0284739
0.00108223
0.00162287
0.0283928
0.00425793
-0.0208924
-0.00315889
0.00535515
-0.0203204
0.00644887
-0.0193635
0.007538
-0.0188154
0.00861828
-0.0179739
0.00969115
-0.0176408
0.0107514
-0.0169499
0.0117988
-0.0164833
0.0128332
-0.0161071
0.0138499
-0.0155501
0.0148476
-0.0150547
0.0158265
-0.0146403
0.0167849
-0.0141965
0.0177171
-0.0136257
0.0186244
-0.0131547
0.0195059
-0.0126773
0.0203597
-0.0121777
0.0211821
-0.0116293
0.0219719
-0.0110902
0.0227294
-0.0105592
0.0234531
-0.0100117
0.0241416
-0.00944851
0.0247915
-0.00886681
0.0254028
-0.00828703
0.0259755
-0.00769896
0.0265083
-0.0070998
0.0270004
-0.00649045
0.0274504
-0.00587575
0.0278567
-0.00526226
0.0282203
-0.00463494
0.0285404
-0.00400134
0.0288167
-0.00336237
0.0290487
-0.00271893
0.0292357
-0.00207726
0.0293776
-0.0014174
0.0294748
-0.000754766
0.0295271
-0.000110634
0.0295343
0.000514472
0.0294965
0.00112006
0.00170567
0.0294137
0.00437469
-0.0220327
-0.00323437
0.00551301
-0.0214587
0.00664766
-0.0204982
0.00777732
-0.019945
0.00889791
-0.0190945
0.0100104
-0.0187533
0.0111099
-0.0180495
0.012196
-0.0175694
0.0132682
-0.0171793
0.0143221
-0.016604
0.0153563
-0.0160889
0.0163708
-0.0156548
0.0173638
-0.0151895
0.0183299
-0.0145918
0.0192703
-0.014095
0.0201837
-0.0135906
0.0210684
-0.0130624
0.0219207
-0.0124817
0.0227396
-0.0119091
0.023525
-0.0113446
0.0242754
-0.0107621
0.0249894
-0.0101625
0.0256637
-0.00954111
0.0262983
-0.00892164
0.0268929
-0.00829353
0.0274464
-0.00765326
0.0279577
-0.00700179
0.0284255
-0.00634349
0.0288482
-0.00568503
0.0292267
-0.00501338
0.0295601
-0.00433482
0.0298481
-0.00365035
0.0300902
-0.00296096
0.0302856
-0.00227267
0.0304342
-0.00156604
0.0305364
-0.00085698
0.030592
-0.000166163
0.0306007
0.000505763
0.0305625
0.0011582
0.00179056
0.0304776
0.00449794
-0.0232162
-0.00331444
0.00567928
-0.02264
0.00685678
-0.0216757
0.00802887
-0.0211171
0.00919167
-0.0202573
0.0103457
-0.0199074
0.0114864
-0.0191901
0.012613
-0.0186961
0.0137248
-0.0182911
0.0148177
-0.0176969
0.0158902
-0.0171614
0.016942
-0.0167066
0.0179713
-0.0162188
0.0189731
-0.0155936
0.019948
-0.0150699
0.0208948
-0.0145375
0.0218118
-0.0139794
0.0226955
-0.0133654
0.0235447
-0.0127583
0.0243591
-0.0121591
0.0251373
-0.0115403
0.0258779
-0.0109031
0.0265775
-0.0102408
0.0272362
-0.00958032
0.0278534
-0.00891077
0.0284281
-0.00822794
0.0289592
-0.00753288
0.0294452
-0.00682952
0.0298848
-0.0061246
0.0302784
-0.00540701
0.0306255
-0.00468185
0.0309253
-0.00395021
0.0311775
-0.00321318
0.0313814
-0.00247654
0.0315368
-0.00172139
0.0316439
-0.000964095
0.0317025
-0.000224782
0.0317125
0.000495793
0.0316737
0.00119691
0.00187787
0.0315864
0.00462777
-0.0244449
-0.00339913
0.00585407
-0.0238663
0.00707637
-0.022898
0.00829286
-0.0223336
0.0094998
-0.0214643
0.0106973
-0.0211049
0.0118811
-0.0203739
0.0130501
-0.0198651
0.0142034
-0.0194445
0.0153372
-0.0188307
0.0164498
-0.018274
0.0175407
-0.0177975
0.018608
-0.0172861
0.019647
-0.0166326
0.0206581
-0.016081
0.0216399
-0.0155193
0.0225907
-0.0149303
0.0235072
-0.0142818
0.0243879
-0.013639
0.0252326
-0.0130038
0.0260398
-0.0123475
0.0268079
-0.0116712
0.0275339
-0.0109668
0.0282175
-0.0102639
0.0288582
-0.00955146
0.0294548
-0.00882455
0.0300063
-0.00808435
0.0305111
-0.00733437
0.0309679
-0.00658142
0.0313771
-0.0058162
0.031738
-0.00504273
0.03205
-0.00426217
0.0323125
-0.00347572
0.0325249
-0.00268894
0.032687
-0.00188345
0.0327989
-0.00107606
0.0328605
-0.000286364
0.0328716
0.000484752
0.032832
0.00123645
0.00196793
0.032742
0.00476427
-0.0257207
-0.00348849
0.00603756
-0.0251396
0.00730665
-0.024167
0.00856953
-0.0235965
0.0098226
-0.0227174
0.0110656
-0.0223479
0.0122943
-0.0216026
0.0135077
-0.0210784
0.0147045
-0.0206413
0.015881
-0.0200073
0.0170356
-0.0194285
0.0181673
-0.0189292
0.0192745
-0.0183933
0.0203524
-0.0177105
0.0214013
-0.0171299
0.0224197
-0.0165377
0.0234059
-0.0159164
0.0243565
-0.0152324
0.0252702
-0.0145527
0.0261465
-0.0138801
0.0269838
-0.0131848
0.0277807
-0.012468
0.028534
-0.0117201
0.0292435
-0.0109734
0.0299085
-0.0102165
0.0305278
-0.00944387
0.0311004
-0.00865688
0.0316246
-0.00785862
0.0320992
-0.007056
0.0325244
-0.0062414
0.0328995
-0.00541781
0.0332238
-0.00458651
0.0334969
-0.00374878
0.0337179
-0.00291
0.0338867
-0.00205226
0.0340035
-0.00119283
0.034068
-0.000350807
0.0340799
0.000472815
0.0340393
0.00127708
0.00206104
0.0339462
0.00490759
-0.0270457
-0.00358259
0.00622991
-0.0264619
0.00754785
-0.025485
0.00885918
-0.0249078
0.0101604
-0.0240186
0.0114509
-0.0236383
0.0127266
-0.0228784
0.0139863
-0.0223381
0.0152286
-0.0218836
0.0164498
-0.0212285
0.0176481
-0.0206269
0.0188227
-0.0201038
0.0199714
-0.019542
0.0210901
-0.0188291
0.0221785
-0.0182183
0.0232352
-0.0175944
0.0242583
-0.0169395
0.0252446
-0.0162187
0.0261927
-0.0155008
0.0271019
-0.0147893
0.0279706
-0.0140535
0.0287974
-0.0132948
0.0295792
-0.0125019
0.0303156
-0.0117098
0.0310058
-0.0109067
0.0316486
-0.0100867
0.032243
-0.00925121
0.0327873
-0.00840295
0.0332802
-0.00754891
0.0337219
-0.00668307
0.0341116
-0.00580749
0.0344486
-0.00492354
0.0347324
-0.0040326
0.0349623
-0.00313986
0.0351379
-0.0022279
0.0352595
-0.00131441
0.0353267
-0.00041803
0.0353394
0.000460139
0.0352975
0.00131901
0.00215753
0.035201
0.00505786
-0.028422
-0.00368152
0.00643135
-0.0278354
0.00780027
-0.0268539
0.00916217
-0.0262697
0.0105136
-0.0253701
0.0118537
-0.0249784
0.0131785
-0.0242032
0.0144865
-0.0236461
0.0157763
-0.0231733
0.0170442
-0.0224964
0.0182883
-0.021871
0.0195075
-0.0213229
0.0206997
-0.0207343
0.0218609
-0.0199903
0.0229906
-0.019348
0.0240872
-0.018691
0.0251488
-0.0180012
0.0261724
-0.0172423
0.0271563
-0.0164848
0.0280999
-0.0157329
0.0290014
-0.0149551
0.0298593
-0.0141527
0.0306707
-0.0133133
0.0314351
-0.0124741
0.0321515
-0.0116231
0.0328188
-0.010754
0.0334357
-0.00986814
0.0340008
-0.00896806
0.0345127
-0.00806077
0.0349714
-0.00714176
0.0353761
-0.00621222
0.0357262
-0.00527362
0.036021
-0.00432745
0.0362599
-0.00337872
0.0364425
-0.00241048
0.0365689
-0.00144083
0.0366388
-0.000487973
0.0366521
0.000446864
0.0366086
0.00136247
0.00225768
0.0365085
0.00521527
-0.0298519
-0.00378539
0.00664213
-0.0292623
0.00806421
-0.028276
0.00947885
-0.0276844
0.0108827
-0.026774
0.0122745
-0.0263702
0.0136506
-0.0255792
0.015009
-0.0250045
0.0163483
-0.0245126
0.0176649
-0.023813
0.0189568
-0.0231628
0.0202226
-0.0225888
0.0214603
-0.021972
0.0226658
-0.0211958
0.0238386
-0.0205208
0.0249769
-0.0198293
0.0260788
-0.0191031
0.0271412
-0.0183047
0.0281626
-0.0175061
0.0291419
-0.0167122
0.0300776
-0.0158907
0.030968
-0.015043
0.0318102
-0.0141556
0.0326036
-0.0132675
0.0333473
-0.0123668
0.0340399
-0.0114466
0.0346803
-0.0105085
0.035267
-0.00955472
0.0357985
-0.00859225
0.0362748
-0.00761804
0.036695
-0.00663248
0.0370586
-0.00563715
0.0373647
-0.00463362
0.0376128
-0.00362679
0.0378025
-0.00260013
0.0379338
-0.00157213
0.0380064
-0.000560598
0.0380201
0.000433116
0.0379749
0.00140768
0.00236179
0.0378708
0.00538002
-0.0313376
-0.00389432
0.00686252
-0.0307448
0.00834001
-0.0297535
0.00980966
-0.029154
0.0112682
-0.0282325
0.0127139
-0.0278159
0.0141434
-0.0270086
0.0155544
-0.0264156
0.0169454
-0.0259035
0.0183128
-0.0251805
0.0196545
-0.0245045
0.020969
-0.0239033
0.0222541
-0.0232571
0.0235059
-0.0224476
0.0247236
-0.0217385
0.0259054
-0.0210111
0.0270493
-0.020247
0.0281523
-0.0194077
0.0292127
-0.0185665
0.0302294
-0.0177289
0.0312006
-0.016862
0.0321248
-0.0159672
0.0329992
-0.0150299
0.0338228
-0.0140912
0.0345948
-0.0131388
0.0353139
-0.0121657
0.0359786
-0.0111733
0.0365877
-0.0101637
0.0371395
-0.00914406
0.037634
-0.00811253
0.0380703
-0.00706881
0.0384477
-0.00601457
0.0387656
-0.00495148
0.0390231
-0.00388433
0.03922
-0.002797
0.0393562
-0.00170838
0.0394315
-0.000635883
0.0394456
0.000419004
0.0393985
0.00145482
0.00247014
0.0392901
0.00555233
-0.0328814
-0.00400845
0.0070928
-0.0322853
0.00862806
-0.0312887
0.010155
-0.030681
0.0116705
-0.029748
0.0131725
-0.0293179
0.0146576
-0.0284937
0.0161236
-0.0278816
0.0175684
-0.0273484
0.0189888
-0.0266009
0.0203825
-0.0258982
0.0217477
-0.0252685
0.0230823
-0.0245916
0.0243824
-0.0237477
0.025647
-0.0230031
0.0268741
-0.0222383
0.0280619
-0.0214347
0.0292071
-0.020553
0.0303081
-0.0196675
0.0313637
-0.0187845
0.0323721
-0.0178704
0.0333315
-0.0169266
0.0342393
-0.0159377
0.0350945
-0.0149464
0.035896
-0.0139403
0.0366424
-0.0129121
0.0373325
-0.0118634
0.0379648
-0.010796
0.0385377
-0.00971698
0.039051
-0.00862591
0.039504
-0.00752177
0.0398958
-0.00640634
0.0402257
-0.0052814
0.040493
-0.00415161
0.0406973
-0.00300129
0.0408386
-0.00184967
0.0409165
-0.000713826
0.0409309
0.000404626
0.0408816
0.0015041
0.00258303
0.0407687
0.00573242
-0.0344859
-0.00412794
0.00733331
-0.0338861
0.00892875
-0.0328842
0.0105155
-0.0322677
0.0120903
-0.0313228
0.013651
-0.0308786
0.015194
-0.0300368
0.0167172
-0.0294047
0.0182182
-0.0288494
0.0196939
-0.0280765
0.0211417
-0.027346
0.0225598
-0.0266866
0.023946
-0.0259778
0.0252964
-0.0250981
0.0266099
-0.0243166
0.0278844
-0.0235128
0.0291178
-0.0226681
0.0303071
-0.0217423
0.0314505
-0.0208109
0.0325467
-0.0198807
0.0335937
-0.0189174
0.0345899
-0.0179227
0.0355324
-0.0168803
0.0364204
-0.0158343
0.0372526
-0.0147725
0.0380275
-0.0136871
0.038744
-0.0125799
0.0394003
-0.0114523
0.0399952
-0.0103118
0.0405281
-0.00915889
0.0409984
-0.00799198
0.041405
-0.00681298
0.0417474
-0.00562378
0.0420247
-0.00442895
0.0422366
-0.0032132
0.0423831
-0.00199611
0.0424637
-0.000794437
0.0424782
0.000390067
0.0424267
0.00155569
0.00270073
0.042309
0.00592055
-0.0361535
-0.00425294
0.00758438
-0.03555
0.00924252
-0.0345423
0.0108915
-0.0339167
0.0125282
-0.0329595
0.0141499
-0.0325003
0.0157534
-0.0316403
0.0173361
-0.0309875
0.0188958
-0.0304091
0.020429
-0.0296098
0.0219333
-0.0288502
0.0234066
-0.0281599
0.0248465
-0.0274177
0.0262494
-0.026501
0.0276138
-0.025681
0.0289376
-0.0248366
0.0302186
-0.0239491
0.0314539
-0.0229776
0.0326415
-0.0219985
0.0337799
-0.0210191
0.0348672
-0.0200048
0.0359016
-0.0189571
0.0368804
-0.0178591
0.0378025
-0.0167564
0.0386666
-0.0156366
0.0394713
-0.0144918
0.0402151
-0.0133237
0.0408966
-0.0121338
0.0415142
-0.0109294
0.0420675
-0.00971221
0.0425556
-0.00848009
0.0429777
-0.00723504
0.043333
-0.00597907
0.0436207
-0.00471669
0.0438405
-0.00343297
0.0439922
-0.00214783
0.0440755
-0.000877746
0.0440902
0.000375403
0.0440361
0.00160977
0.00282351
0.0439133
0.006117
-0.0378869
-0.00438363