/*--------------------------------*- C++ -*----------------------------------*\
| =========                 |                                                 |
| \\      /  F ield         | OpenFOAM: The Open Source CFD Toolbox           |
|  \\    /   O peration     | Version:  3.0.1                                 |
|   \\  /    A nd           | Web:      www.OpenFOAM.org                      |
|    \\/     M anipulation  |                                                 |
\*---------------------------------------------------------------------------*/
FoamFile
{
    version     2.0;
    format      ascii;
    class       volVectorField;
    location    "500";
    object      U;
}
// * * * * * * * * * * * * * * * * * * * * * * * * * * * * * * * * * * * * * //

dimensions      [0 1 -1 0 0 0 0];

internalField   nonuniform List<vector> 
58000
(
(0.446503 0.611023 -2.303e-20)
(0.553292 0.758684 1.24921e-20)
(0.667109 0.835711 -7.04138e-22)
(0.77318 0.854377 -1.054e-20)
(0.866338 0.836124 5.77863e-21)
(0.942599 0.793984 4.31938e-21)
(1.00419 0.739455 0)
(1.05075 0.681884 -8.88546e-21)
(1.0871 0.622766 2.66351e-20)
(1.11698 0.566261 9.31495e-21)
(1.14051 0.515154 -1.98159e-20)
(1.15857 0.468321 0)
(1.1716 0.424805 0)
(1.18172 0.387097 7.59492e-21)
(1.18783 0.354729 0)
(1.19165 0.325732 -7.65195e-20)
(1.19363 0.299356 7.53349e-20)
(1.19461 0.275739 -8.2977e-21)
(1.19448 0.255027 6.48576e-20)
(1.19316 0.236374 -6.43394e-20)
(1.19125 0.219162 -6.27813e-20)
(1.18858 0.202955 6.22696e-20)
(1.18588 0.188041 0)
(1.18262 0.174554 5.93308e-20)
(1.17886 0.162038 -5.89845e-20)
(1.17484 0.150214 5.74825e-20)
(1.17051 0.138927 2.92743e-21)
(1.16594 0.128157 -5.63102e-20)
(1.16148 0.118217 0)
(1.15657 0.109024 3.26667e-21)
(1.15142 0.100295 -2.98476e-20)
(1.14602 0.0919812 5.61209e-20)
(1.14023 0.0840819 -3.67888e-22)
(1.13413 0.0768017 -2.43986e-20)
(1.12635 0.0700536 -1.18146e-20)
(1.11603 0.0637248 1.26775e-20)
(1.10439 0.0578854 7.76208e-22)
(1.09341 0.0526939 7.53232e-22)
(1.08352 0.0479133 -2.28892e-21)
(1.07975 0.0442015 3.93758e-21)
(0.571607 0.328387 -5.63211e-21)
(0.638045 0.395561 -2.58084e-21)
(0.712283 0.448596 0)
(0.789425 0.490631 -7.84723e-22)
(0.863668 0.51795 4.03777e-22)
(0.933881 0.531267 -8.92333e-21)
(0.999007 0.532974 2.01656e-22)
(1.05494 0.524894 6.77822e-21)
(1.10413 0.508086 -8.13854e-21)
(1.14389 0.4851 0)
(1.17382 0.459992 2.10168e-20)
(1.19702 0.433362 -6.65538e-20)
(1.21518 0.405005 -2.92071e-21)
(1.22806 0.377964 1.32598e-21)
(1.23705 0.353055 8.16328e-20)
(1.24343 0.32891 -5.16206e-20)
(1.24759 0.305384 3.75439e-20)
(1.24986 0.283536 -8.71673e-20)
(1.25077 0.263988 -5.5236e-21)
(1.25071 0.245836 4.37188e-20)
(1.24985 0.228482 5.2906e-21)
(1.24827 0.211823 0)
(1.24621 0.196496 0)
(1.24386 0.182642 0)
(1.24121 0.169586 0)
(1.23824 0.15703 4.75239e-20)
(1.23497 0.144933 -4.23363e-20)
(1.23146 0.133424 0)
(1.2279 0.122863 2.31288e-20)
(1.22429 0.113047 -3.40332e-22)
(1.22053 0.103605 -1.78117e-20)
(1.21667 0.0945292 -2.62739e-21)
(1.21271 0.0858456 1.75554e-20)
(1.20894 0.0777214 -2.13475e-20)
(1.20586 0.0701977 0)
(1.20304 0.0632908 -1.19742e-21)
(1.20023 0.0570221 1.18492e-21)
(1.19759 0.0514087 -6.1076e-22)
(1.1953 0.0460337 -2.36565e-21)
(1.19312 0.0410735 2.4506e-21)
(0.639249 0.282391 8.00981e-22)
(0.666407 0.335174 0)
(0.700732 0.383048 0)
(0.742935 0.42519 3.79832e-21)
(0.790632 0.457518 6.70764e-21)
(0.842174 0.480011 -7.78134e-21)
(0.894483 0.492717 7.79831e-22)
(0.94373 0.495859 -2.85492e-21)
(0.991403 0.49147 2.93463e-21)
(1.03474 0.480824 0)
(1.07168 0.465213 0)
(1.10403 0.445757 -3.88545e-21)
(1.13259 0.42342 2.3125e-20)
(1.15545 0.400453 4.16476e-22)
(1.17327 0.377557 -2.52812e-20)
(1.18791 0.354552 7.41364e-21)
(1.19985 0.331807 3.58798e-20)
(1.20894 0.310242 -6.16166e-21)
(1.2155 0.290302 -2.60929e-20)
(1.22031 0.271428 -2.37686e-20)
(1.22385 0.253344 2.70778e-20)
(1.22629 0.236056 7.43792e-21)
(1.22766 0.220066 0)
(1.22816 0.205387 0)
(1.22802 0.191479 -3.77871e-21)
(1.22736 0.178162 -3.57553e-20)
(1.22626 0.165414 3.18059e-20)
(1.22476 0.153335 -3.79917e-21)
(1.22292 0.142165 -2.01315e-21)
(1.22081 0.131672 -2.00288e-21)
(1.21844 0.121547 0)
(1.21584 0.111767 0)
(1.21303 0.10228 -1.35411e-20)
(1.21002 0.0931313 1.56254e-20)
(1.20687 0.0844515 1.87584e-21)
(1.20359 0.0762782 4.67452e-23)
(1.20026 0.0686483 -9.72059e-22)
(1.19708 0.0615942 0)
(1.19416 0.0549374 1.88454e-21)
(1.19141 0.0484126 -1.98781e-21)
(0.710034 0.234972 1.94216e-21)
(0.727362 0.271535 -1.90477e-21)
(0.7481 0.306636 0)
(0.773188 0.340391 -5.1876e-21)
(0.803143 0.369488 -9.90943e-22)
(0.837292 0.393713 4.17941e-21)
(0.874765 0.411608 2.45988e-21)
(0.912607 0.422466 4.2298e-22)
(0.951371 0.427399 -1.65532e-22)
(0.988915 0.426475 0)
(1.02298 0.420508 -1.17238e-21)
(1.05436 0.410462 1.47088e-20)
(1.08345 0.396858 -1.01397e-20)
(1.10821 0.381111 -4.04803e-21)
(1.12876 0.364153 0)
(1.14651 0.34608 1.36621e-20)
(1.16171 0.327242 -2.27597e-20)
(1.17404 0.308579 -1.44079e-20)
(1.18366 0.290748 2.45463e-20)
(1.19133 0.273463 -5.67378e-21)
(1.19751 0.256542 5.10374e-21)
(1.20235 0.240052 -5.91419e-21)
(1.20586 0.224551 -2.26286e-20)
(1.20827 0.210167 2.26812e-20)
(1.20987 0.196442 -2.48359e-21)
(1.21079 0.183207 2.79937e-21)
(1.21111 0.170445 0)
(1.2109 0.158278 3.07861e-21)
(1.21023 0.146971 0)
(1.2092 0.136331 2.86519e-21)
(1.20785 0.126063 -1.186e-20)
(1.2062 0.116151 1.1981e-20)
(1.20427 0.106578 1.19325e-20)
(1.2021 0.0974359 -1.54926e-21)
(1.19975 0.0888423 -1.35826e-20)
(1.19721 0.0806941 6.71616e-21)
(1.19449 0.0728857 -5.99816e-21)
(1.19167 0.0654384 0)
(1.18886 0.0583096 7.28185e-22)
(1.18611 0.0514339 0)
(0.753595 0.209211 3.88532e-21)
(0.765022 0.237117 -1.29258e-21)
(0.778608 0.264496 -2.18797e-21)
(0.79506 0.291671 1.78173e-21)
(0.815172 0.316485 0)
(0.838853 0.338865 3.04732e-21)
(0.865966 0.357535 0)
(0.894714 0.37124 1.77199e-21)
(0.925538 0.380785 -2.12314e-22)
(0.956847 0.385583 -1.40582e-22)
(0.986658 0.385597 9.24481e-22)
(1.01536 0.381673 -1.41693e-21)
(1.0431 0.374308 6.90862e-21)
(1.06779 0.364153 -8.71912e-21)
(1.08919 0.351946 0)
(1.10847 0.338071 3.04169e-21)
(1.12565 0.3229 0)
(1.1402 0.307205 -2.97998e-21)
(1.15206 0.291608 -5.91414e-22)
(1.16196 0.276048 -1.5041e-20)
(1.17033 0.260498 -8.28061e-21)
(1.17728 0.245091 -4.17745e-22)
(1.18272 0.230369 1.24957e-20)
(1.18683 0.216485 -1.70368e-20)
(1.18999 0.203097 2.17245e-20)
(1.19237 0.190094 1.96065e-20)
(1.19404 0.177488 -1.78718e-20)
(1.19505 0.16541 -1.37812e-20)
(1.19546 0.154113 1.82538e-20)
(1.19539 0.143418 -2.07572e-20)
(1.19492 0.133065 1.85951e-20)
(1.1941 0.123047 2.26544e-21)
(1.19293 0.113354 0)
(1.19148 0.104076 -8.23235e-21)
(1.18978 0.0953185 6.13574e-23)
(1.18788 0.0869528 9.55713e-21)
(1.18577 0.0788654 -4.75375e-21)
(1.18348 0.0710855 4.80329e-21)
(1.18107 0.0636093 -2.99882e-21)
(1.17855 0.0564229 2.55823e-21)
(0.789238 0.189145 -3.5299e-21)
(0.797759 0.210903 3.47432e-21)
(0.807482 0.232456 4.07554e-22)
(0.818955 0.254241 -3.31715e-21)
(0.833056 0.274789 2.70519e-21)
(0.849877 0.294187 -5.25098e-21)
(0.869691 0.31145 2.51576e-22)
(0.891395 0.325416 3.14353e-21)
(0.915395 0.336686 -2.76693e-21)
(0.940708 0.344426 3.91174e-22)
(0.965762 0.348197 -2.83164e-22)
(0.99071 0.348607 2.33114e-21)
(1.01563 0.345979 -3.57565e-21)
(1.03868 0.340405 1.36468e-21)
(1.05941 0.332466 2.40509e-21)
(1.07865 0.322606 7.24206e-21)
(1.09636 0.31112 -7.35393e-21)
(1.11187 0.298587 2.47126e-21)
(1.12497 0.285582 9.52664e-21)
(1.13627 0.272194 -1.00987e-20)
(1.14611 0.258473 3.01964e-21)
(1.15456 0.244582 1.19478e-20)
(1.16146 0.231029 -8.78687e-21)
(1.16694 0.218026 -2.99309e-21)
(1.1714 0.20533 -1.31671e-20)
(1.17499 0.192875 2.33273e-20)
(1.1778 0.180694 -1.36823e-20)
(1.17986 0.168929 -3.11877e-22)
(1.18122 0.157834 1.42498e-20)
(1.18201 0.147269 -2.87812e-20)
(1.18233 0.137006 1.63666e-20)
(1.18224 0.127044 -1.6743e-20)
(1.18176 0.117381 5.70175e-21)
(1.18093 0.108108 1.51163e-20)
(1.17981 0.0993313 -7.64323e-21)
(1.17844 0.0909309 -7.63334e-21)
(1.17684 0.0827845 7.71793e-21)
(1.17501 0.074914 3.85234e-21)
(1.17299 0.0673308 -3.42353e-21)
(1.1708 0.060049 0)
(0.816453 0.174294 8.94714e-22)
(0.823212 0.191834 -2.29138e-21)
(0.830722 0.209261 2.82625e-21)
(0.839364 0.226988 0)
(0.849871 0.244003 0)
(0.862394 0.260477 0)
(0.877305 0.275714 -3.27321e-21)
(0.893955 0.288744 2.20221e-21)
(0.912723 0.300087 1.47441e-21)
(0.933042 0.308919 -7.70732e-22)
(0.95376 0.314628 0)
(0.974951 0.317647 6.27259e-23)
(0.996685 0.318189 1.00987e-21)
(1.01743 0.315971 0)
(1.03666 0.311377 -3.47453e-21)
(1.055 0.30485 -4.72107e-21)
(1.07232 0.296601 4.7978e-21)
(1.08793 0.28701 -6.39006e-21)
(1.1015 0.276547 4.58287e-21)
(1.11353 0.265388 3.44064e-21)
(1.12427 0.253634 -4.59598e-21)
(1.13374 0.241455 -4.47554e-22)
(1.1417 0.229303 6.84236e-21)
(1.14825 0.21741 2.93862e-22)
(1.15375 0.205632 0)
(1.15837 0.193941 0)
(1.16216 0.182392 -1.08155e-20)
(1.16515 0.171134 2.17179e-20)
(1.16735 0.160415 -8.48211e-21)
(1.16892 0.150133 0)
(1.16998 0.140093 -1.32154e-20)
(1.17058 0.130304 -3.57539e-23)
(1.17073 0.120773 1.36293e-20)
(1.17049 0.111591 -6.11036e-21)
(1.1699 0.102862 7.69394e-21)
(1.16903 0.0944749 6.22611e-21)
(1.16788 0.0863147 -6.29901e-21)
(1.16647 0.0784056 0)
(1.16482 0.070767 -1.99752e-21)
(1.16296 0.0634222 1.49988e-21)
(0.838553 0.162469 -1.41947e-21)
(0.844169 0.17693 2.07992e-21)
(0.850271 0.191299 0)
(0.857135 0.205944 0)
(0.86536 0.220135 1.73729e-21)
(0.875089 0.23407 -1.73869e-21)
(0.886684 0.247261 2.63814e-21)
(0.899754 0.258942 -5.40676e-22)
(0.91463 0.269574 -2.35122e-21)
(0.931011 0.278442 -9.628e-23)
(0.948078 0.284918 0)
(0.965884 0.289318 -5.4237e-23)
(0.984519 0.291783 1.08564e-21)
(1.00278 0.291831 -1.46632e-21)
(1.02012 0.289692 3.84455e-22)
(1.03703 0.285759 0)
(1.05336 0.28016 0)
(1.06844 0.273104 1.89612e-21)
(1.08189 0.26495 7.9653e-21)
(1.09408 0.255908 -2.21034e-20)
(1.1052 0.246095 8.23231e-21)
(1.11521 0.235669 3.03462e-21)
(1.12385 0.225012 1.87544e-21)
(1.13113 0.214362 6.01144e-21)
(1.13741 0.203649 -7.60707e-21)
(1.14282 0.192879 4.37628e-21)
(1.1474 0.182117 -1.80709e-21)
(1.15116 0.171515 -1.29967e-20)
(1.1541 0.161315 -4.49635e-21)
(1.15635 0.151447 0)
(1.15807 0.141755 0)
(1.15928 0.132255 -9.65932e-21)
(1.16002 0.122961 7.42606e-21)
(1.16032 0.113965 1.20568e-21)
(1.16023 0.105372 3.75891e-21)
(1.15981 0.0970849 -5.131e-21)
(1.15909 0.0889994 6.28448e-22)
(1.15807 0.0811407 0)
(1.15678 0.0735318 3.20409e-22)
(1.15525 0.0662003 1.81481e-22)
(0.856675 0.152845 -1.5553e-22)
(0.861497 0.164996 -1.59805e-22)
(0.866653 0.177056 2.43624e-21)
(0.872348 0.189342 1.48134e-21)
(0.879063 0.201306 1.40519e-21)
(0.886922 0.213143 2.54306e-21)
(0.896238 0.224508 -5.07228e-21)
(0.906768 0.234801 -1.10475e-21)
(0.918794 0.244434 9.04594e-22)
(0.932165 0.252816 6.75839e-22)
(0.9463 0.259375 -1.19224e-21)
(0.961255 0.264353 7.92898e-22)
(0.977134 0.267855 4.84792e-23)
(0.993012 0.269321 2.06937e-21)
(1.00841 0.268867 -1.1312e-21)
(1.02369 0.266829 3.35055e-21)
(1.03871 0.263271 2.68777e-23)
(1.05288 0.258273 -1.34326e-20)
(1.0658 0.252085 1.00019e-20)
(1.07773 0.244919 -2.19173e-21)
(1.08882 0.236889 0)
(1.09899 0.22813 5.25159e-21)
(1.10795 0.218947 -7.84681e-21)
(1.11567 0.209571 -8.64922e-21)
(1.12246 0.199984 1.18593e-20)
(1.12843 0.190213 -9.64046e-21)
(1.13361 0.180332 1.49871e-20)
(1.13797 0.170487 1.83737e-21)
(1.1415 0.160908 1.89656e-21)
(1.14434 0.151558 -1.78193e-21)
(1.14662 0.14231 0)
(1.14837 0.133192 -1.89482e-21)
(1.14963 0.124223 2.09746e-21)
(1.15042 0.115495 5.19243e-21)
(1.15079 0.107114 -7.35989e-21)
(1.1508 0.0989957 5.29252e-21)
(1.15047 0.0910495 -4.8731e-21)
(1.14983 0.0833019 0)
(1.14888 0.0757789 -1.11844e-21)
(1.14766 0.068509 1.17761e-21)
(0.871839 0.144803 0)
(0.876074 0.155167 -2.87292e-21)
(0.880553 0.165438 -2.72985e-21)
(0.885431 0.175885 -1.3295e-21)
(0.891097 0.186083 -1.37323e-21)
(0.897652 0.196211 0)
(0.90536 0.206018 1.06868e-21)
(0.914062 0.215035 -7.55123e-23)
(0.923989 0.223623 -1.88127e-22)
(0.935073 0.231307 -1.60895e-22)
(0.946902 0.23759 -3.91639e-22)
(0.959532 0.242667 -1.58746e-21)
(0.973076 0.246624 -2.19117e-22)
(0.98683 0.2489 2.21743e-22)
(1.00039 0.249538 -2.99468e-22)
(1.01403 0.248818 1.84134e-22)
(1.02765 0.246761 1.67654e-21)
(1.04072 0.243356 0)
(1.05286 0.238764 -5.72091e-21)
(1.06425 0.23318 4.17711e-21)
(1.07501 0.226704 0)
(1.08503 0.219444 1.16974e-20)
(1.09403 0.211634 -1.02323e-20)
(1.10193 0.203484 2.11174e-21)
(1.10899 0.195012 9.83156e-21)
(1.11531 0.186255 -7.55861e-21)
(1.12089 0.177288 0)
(1.1257 0.168251 0)
(1.12968 0.159354 -2.8088e-21)
(1.13298 0.150588 1.59227e-21)
(1.13573 0.141856 6.34068e-21)
(1.13794 0.133188 -4.75004e-21)
(1.13965 0.124613 0)
(1.14087 0.116219 1.28309e-22)
(1.14164 0.108113 -6.10311e-21)
(1.14203 0.100225 3.49392e-21)
(1.14207 0.0924774 0)
(1.14177 0.0848976 -1.83595e-21)
(1.14115 0.0775134 1.16857e-21)
(1.14023 0.0703538 -1.19833e-22)
(0.884695 0.137958 7.43452e-22)
(0.888479 0.146907 7.27586e-22)
(0.892449 0.155762 1.18511e-21)
(0.896728 0.164751 9.45564e-23)
(0.901633 0.173532 -2.1576e-23)
(0.907245 0.182269 0)
(0.913782 0.190771 -2.60549e-23)
(0.921137 0.198667 1.39473e-21)
(0.929496 0.206274 -1.61641e-21)
(0.938837 0.213208 -1.08521e-22)
(0.948861 0.21905 4.22992e-22)
(0.959623 0.223962 7.85937e-22)
(0.971234 0.22802 -4.71098e-22)
(0.983162 0.2307 -2.03859e-22)
(0.995071 0.232002 2.69971e-22)
(1.00719 0.232157 -1.45155e-21)
(1.01942 0.23116 2.49846e-22)
(1.03133 0.228946 -1.39336e-21)
(1.04257 0.225604 6.90808e-22)
(1.05327 0.221307 -5.6497e-21)
(1.06351 0.216136 4.88346e-21)
(1.07318 0.210173 -6.37281e-21)
(1.082 0.203589 6.24744e-21)
(1.08987 0.196566 -9.23859e-21)
(1.09701 0.189145 9.24912e-21)
(1.10349 0.181366 -1.06023e-20)
(1.1093 0.173302 -3.77466e-22)
(1.11439 0.165079 1.12113e-20)
(1.1187 0.15689 -2.35098e-21)
(1.12235 0.148743 4.93936e-21)
(1.12545 0.140566 -2.49818e-21)
(1.12803 0.132395 0)
(1.13011 0.12426 0)
(1.1317 0.11625 1.48824e-21)
(1.13282 0.108468 -2.83964e-21)
(1.13355 0.100859 -7.98624e-22)
(1.13392 0.093356 -1.36188e-23)
(1.13393 0.085989 3.10361e-21)
(1.13361 0.0787867 4.07678e-22)
(1.13297 0.0717778 1.07832e-22)
(0.895724 0.132041 -2.40766e-22)
(0.899147 0.139848 1.03701e-21)
(0.90272 0.14756 -8.92034e-22)
(0.906541 0.155371 -8.26685e-22)
(0.91087 0.163003 -8.45145e-22)
(0.915775 0.170599 1.35296e-21)
(0.921434 0.178013 1.36391e-24)
(0.927771 0.184944 1.217e-21)
(0.934939 0.19167 -1.27943e-22)
(0.942934 0.19788 -1.71792e-21)
(0.951539 0.203224 1.74742e-21)
(0.960804 0.20784 1.07988e-21)
(0.970833 0.211796 3.1761e-22)
(0.981221 0.214621 8.73942e-23)
(0.991694 0.216291 0)
(1.00244 0.217 0)
(1.01338 0.216729 3.62215e-21)
(1.02417 0.215378 3.28256e-22)
(1.03448 0.212991 -2.58764e-22)
(1.04441 0.209712 1.88675e-21)
(1.05402 0.205606 4.30806e-21)
(1.06321 0.200731 -5.60495e-21)
(1.0717 0.195208 -2.96958e-21)
(1.07939 0.189189 -4.3198e-22)
(1.08645 0.182725 -2.05256e-21)
(1.09294 0.175857 6.48267e-21)
(1.09883 0.16865 0)
(1.10407 0.161216 -1.88396e-22)
(1.10859 0.153728 0)
(1.11247 0.146208 -1.99099e-21)
(1.11584 0.138603 2.27043e-21)
(1.1187 0.130951 -4.55783e-21)
(1.12107 0.123285 6.87754e-21)
(1.12296 0.11569 -6.01228e-21)
(1.12438 0.108266 7.41839e-21)
(1.12539 0.100971 -2.55636e-21)
(1.12604 0.0937494 6.11518e-22)
(1.12633 0.0866308 2.64062e-21)
(1.12628 0.0796453 -6.73301e-22)
(1.1259 0.0728214 6.23291e-22)
(0.905277 0.126862 -3.86104e-22)
(0.908404 0.133731 -4.23233e-22)
(0.911657 0.140505 -6.75046e-22)
(0.915115 0.147351 1.54211e-21)
(0.918994 0.154039 4.28956e-21)
(0.923351 0.160691 -2.62859e-21)
(0.928332 0.167193 0)
(0.933881 0.1733 1.06023e-21)
(0.940123 0.179253 -1.95894e-21)
(0.947065 0.184799 0)
(0.954542 0.189644 -6.57738e-22)
(0.962602 0.193908 -9.95373e-22)
(0.971338 0.197653 -3.74272e-22)
(0.980439 0.200466 3.40878e-22)
(0.989681 0.20231 -3.80722e-22)
(0.999222 0.203348 7.99017e-22)
(1.00901 0.203555 7.63152e-22)
(1.01874 0.202816 -3.19811e-21)
(1.02815 0.201142 -1.87997e-22)
(1.0373 0.198654 -1.25584e-21)
(1.04623 0.1954 3.41783e-21)
(1.05486 0.19142 -1.72594e-21)
(1.06293 0.186794 -2.23197e-21)
(1.07033 0.181647 4.7945e-21)
(1.07721 0.176032 -7.25121e-21)
(1.08359 0.169988 0)
(1.08945 0.163571 6.03644e-21)
(1.09473 0.15688 -7.75936e-21)
(1.09934 0.150066 0)
(1.10337 0.14316 1.82161e-21)
(1.10691 0.136123 -3.68966e-21)
(1.10997 0.128994 3.75084e-21)
(1.11256 0.121808 -2.05827e-21)
(1.11468 0.114645 1.06322e-21)
(1.11634 0.1076 -7.87454e-23)
(1.11759 0.100643 -3.22879e-21)
(1.11848 0.0937268 1.63484e-21)
(1.11901 0.0868827 1.13663e-21)
(1.11919 0.0801407 -1.72952e-21)
(1.11904 0.0735289 7.57343e-22)
(0.913623 0.122281 -3.50221e-22)
(0.9165 0.128368 -1.04592e-21)
(0.919487 0.134362 2.09338e-21)
(0.922649 0.140407 -1.32551e-21)
(0.926166 0.146308 -1.26078e-21)
(0.930085 0.152172 2.23539e-21)
(0.934529 0.157907 -2.06883e-21)
(0.939453 0.16331 -8.97664e-22)
(0.944961 0.168591 8.75021e-22)
(0.951064 0.173541 1.30521e-21)
(0.957635 0.177914 -7.13531e-22)
(0.964716 0.181814 4.57207e-22)
(0.972391 0.185299 -4.03112e-22)
(0.980416 0.188007 3.53117e-22)
(0.988611 0.189899 1.39977e-23)
(0.997108 0.191114 3.98241e-22)
(1.00586 0.191621 8.05168e-22)
(1.01464 0.191306 -3.88238e-22)
(1.0232 0.190157 -9.40674e-22)
(1.03159 0.188273 1.15643e-21)
(1.03985 0.185692 -1.20248e-21)
(1.0479 0.182437 -1.59324e-21)
(1.0555 0.178557 -3.56036e-21)
(1.06254 0.174154 5.38796e-21)
(1.06915 0.169279 2.20215e-21)
(1.07534 0.163967 -2.15643e-21)
(1.08108 0.158264 5.02699e-21)
(1.08631 0.152256 -5.08907e-21)
(1.09094 0.146073 0)
(1.09502 0.139752 -5.94921e-21)
(1.09866 0.133265 6.04481e-21)
(1.10185 0.12665 -3.26095e-21)
(1.10459 0.119941 4.92648e-21)
(1.10688 0.113213 5.18957e-21)
(1.10872 0.106556 -4.50902e-21)
(1.11017 0.0999499 9.65119e-22)
(1.11126 0.0933554 0)
(1.11199 0.0868033 -1.95778e-21)
(1.11236 0.0803239 1.74235e-21)
(1.11241 0.0739449 -3.57824e-23)
(0.920966 0.118194 6.71777e-22)
(0.92363 0.123622 5.87282e-22)
(0.926391 0.128958 5.10982e-22)
(0.929304 0.134329 0)
(0.932522 0.139567 0)
(0.936084 0.144767 0)
(0.940091 0.149852 -8.44196e-22)
(0.944508 0.154652 1.69806e-21)
(0.949423 0.159351 0)
(0.954846 0.163773 -6.00112e-22)
(0.960679 0.167711 0)
(0.966957 0.171258 6.66094e-22)
(0.973755 0.174465 -9.43358e-22)
(0.980879 0.17702 1.30319e-22)
(0.988183 0.178883 -3.76273e-23)
(0.995779 0.180171 0)
(1.00364 0.180857 -9.12898e-22)
(1.01155 0.180828 8.59533e-22)
(1.01933 0.180059 1.53362e-21)
(1.02702 0.178632 -1.55201e-21)
(1.03462 0.176575 2.09184e-21)
(1.04209 0.173901 1.14762e-21)
(1.0492 0.170635 -2.93415e-21)
(1.05585 0.16686 2.79245e-21)
(1.06214 0.162621 -5.22443e-21)
(1.06809 0.157949 -7.6981e-23)
(1.07365 0.152882 5.91647e-21)
(1.07875 0.147491 4.50808e-21)
(1.08332 0.141891 -1.16086e-20)
(1.08741 0.136117 9.89346e-21)
(1.09108 0.130151 1.43718e-21)
(1.09433 0.124029 -4.0778e-21)
(1.09716 0.117784 -1.49358e-21)
(1.09957 0.111485 -1.55202e-21)
(1.10154 0.105216 0)
(1.10314 0.098965 7.72281e-22)
(1.10438 0.0926993 7.95925e-22)
(1.10527 0.0864493 0)
(1.10582 0.0802447 4.3151e-22)
(1.10604 0.0741129 -2.90016e-23)
(0.927466 0.11452 3.99481e-22)
(0.929944 0.119385 1.25815e-21)
(0.932511 0.124162 -1.03491e-21)
(0.935212 0.12896 -8.89739e-22)
(0.938177 0.133635 0)
(0.94144 0.138269 0)
(0.945085 0.142798 0)
(0.949084 0.14708 0)
(0.95351 0.151273 1.15126e-21)
(0.958374 0.15523 -8.63276e-23)
(0.963596 0.158776 0)
(0.969208 0.161991 5.92324e-22)
(0.975275 0.164923 -5.97515e-22)
(0.981641 0.167301 -2.49682e-22)
(0.988185 0.169088 6.84622e-24)
(0.995004 0.170384 1.23843e-22)
(1.00207 0.171164 -2.91509e-22)
(1.00923 0.171321 3.82838e-22)
(1.01631 0.170823 -1.24645e-21)
(1.02333 0.169739 5.99562e-22)
(1.03032 0.168089 -9.10459e-22)
(1.03722 0.165877 -1.06734e-21)
(1.04385 0.163113 0)
(1.0501 0.159862 -2.61444e-21)
(1.05605 0.156166 1.52504e-21)
(1.06171 0.152047 1.67367e-21)
(1.06704 0.14754 -1.6564e-22)
(1.07199 0.142701 1.78097e-21)
(1.07645 0.13763 3.99527e-21)
(1.08047 0.132361 -2.02473e-21)
(1.08412 0.126882 -1.1657e-21)
(1.08739 0.121225 -9.56611e-23)
(1.09026 0.115424 4.98463e-21)
(1.09274 0.10954 -5.06417e-21)
(1.0948 0.103653 0)
(1.09651 0.0977536 -1.38518e-21)
(1.09787 0.0918173 -7.403e-22)
(1.09889 0.085873 0)
(1.09957 0.0799499 -1.93854e-22)
(1.09993 0.0740744 0)
(0.933252 0.111195 -1.63056e-22)
(0.935566 0.115576 -1.3776e-21)
(0.937962 0.119872 -3.95243e-22)
(0.940479 0.124178 1.66723e-21)
(0.943227 0.12837 0)
(0.946234 0.132519 -2.03666e-21)
(0.949574 0.13657 1.37544e-21)
(0.953222 0.140404 -1.13502e-21)
(0.957238 0.144156 1.13983e-21)
(0.961635 0.147704 -4.88384e-22)
(0.966345 0.150898 0)
(0.971398 0.153808 0)
(0.97685 0.156478 0)
(0.982572 0.158672 2.31268e-22)
(0.988466 0.160356 7.85588e-23)
(0.994614 0.161619 -7.95441e-23)
(1.001 0.162436 0)
(1.00749 0.162708 -9.83286e-22)
(1.01393 0.162401 -2.05499e-21)
(1.02035 0.161572 5.25094e-21)
(1.02678 0.160236 -2.5903e-21)
(1.03314 0.158391 0)
(1.0393 0.156035 0)
(1.04514 0.15322 1.15569e-21)
(1.05074 0.149982 3.70774e-21)
(1.0561 0.14634 -2.57984e-21)
(1.06118 0.142321 8.60383e-23)
(1.06593 0.137972 -6.47308e-21)
(1.07025 0.133376 5.01192e-21)
(1.07417 0.128568 9.78006e-23)
(1.07776 0.123539 0)
(1.08099 0.118317 -1.05428e-21)
(1.08387 0.112935 1.02199e-21)
(1.08638 0.107447 1.17518e-21)
(1.08849 0.101929 5.11523e-23)
(1.09026 0.0963735 -1.7509e-21)
(1.09171 0.0907621 1.24974e-21)
(1.09282 0.0851223 -2.54679e-21)
(1.09361 0.0794822 1.61373e-21)
(1.09409 0.0738676 0)
(0.938428 0.10817 -2.88742e-23)
(0.940595 0.112131 -3.99989e-22)
(0.942838 0.11601 0)
(0.945193 0.119891 6.71245e-22)
(0.947751 0.123665 0)
(0.950538 0.127393 3.00335e-21)
(0.953616 0.131031 -1.0381e-22)
(0.956963 0.134474 -1.08074e-21)
(0.960632 0.137843 1.88038e-21)
(0.964633 0.14103 0)
(0.96891 0.143909 6.52754e-22)
(0.973488 0.146542 4.59086e-22)
(0.978416 0.148965 -3.88413e-22)
(0.983589 0.150978 3.7511e-23)
(0.988923 0.152548 2.56245e-22)
(0.99449 0.153752 0)
(1.00028 0.154567 0)
(1.00617 0.154905 6.85041e-23)
(1.01205 0.15473 1.71637e-21)
(1.01793 0.15409 -1.73456e-21)
(1.02383 0.152995 -1.45305e-21)
(1.0297 0.15144 -1.76209e-21)
(1.0354 0.149416 1.50732e-21)
(1.04085 0.146962 0)
(1.04611 0.144112 3.24351e-21)
(1.05116 0.140879 -9.16258e-21)
(1.05597 0.137283 6.14585e-21)
(1.0605 0.133366 -5.52364e-21)
(1.06465 0.129195 2.83905e-21)
(1.06845 0.124804 -1.30064e-22)
(1.07194 0.120186 3.37193e-21)
(1.07511 0.115368 -6.98307e-21)
(1.07796 0.110376 2.65477e-21)
(1.08046 0.105264 -3.82619e-21)
(1.0826 0.100097 2.99756e-21)
(1.08441 0.0948747 -2.10823e-21)
(1.0859 0.0895797 2.14551e-21)
(1.08709 0.0842392 1.65921e-21)
(1.08795 0.0788799 -1.70689e-21)
(1.08852 0.0735268 0)
(0.943076 0.105404 0)
(0.945111 0.108997 0)
(0.947218 0.112512 8.20805e-24)
(0.949427 0.116023 -6.747e-22)
(0.951818 0.119432 1.07681e-21)
(0.954412 0.122796 -4.29099e-21)
(0.957262 0.126073 8.35273e-23)
(0.960349 0.129175 -9.49119e-22)
(0.963719 0.132206 -2.37631e-21)
(0.96738 0.135076 1.43852e-21)
(0.971284 0.137674 -5.79217e-22)
(0.975455 0.140055 8.21493e-23)
(0.979934 0.142252 1.74436e-22)
(0.984633 0.144091 -4.94372e-22)
(0.989482 0.145542 -1.22945e-22)
(0.994543 0.146672 -7.1316e-23)
(0.999806 0.147462 -4.69807e-22)
(1.00518 0.147831 1.67225e-21)
(1.01055 0.147745 2.05944e-21)
(1.01594 0.147243 -3.28377e-21)
(1.02136 0.146333 2.97339e-21)
(1.02677 0.145007 -2.10304e-21)
(1.03206 0.143253 1.47226e-21)
(1.03713 0.141099 -1.51966e-21)
(1.04204 0.138575 1.70248e-21)
(1.04679 0.135691 0)
(1.05134 0.132464 0)
(1.05563 0.128925 1.22467e-21)
(1.05959 0.125132 0)
(1.06324 0.121117 -1.40556e-21)
(1.06662 0.116873 0)
(1.06971 0.112425 4.55307e-21)
(1.0725 0.107798 -1.59752e-21)
(1.07496 0.103037 8.71959e-22)
(1.07709 0.0982042 9.11129e-22)
(1.07891 0.0932994 0)
(1.08044 0.0883096 0)
(1.08167 0.0832602 -5.06137e-22)
(1.08259 0.0781766 7.63358e-22)
(1.08323 0.0730827 -5.08747e-22)
(0.947266 0.102863 3.06902e-22)
(0.949181 0.106134 0)
(0.951165 0.109329 4.04689e-23)
(0.953243 0.112514 5.50688e-22)
(0.955484 0.115604 -2.48264e-21)
(0.957906 0.118647 3.75611e-21)
(0.960556 0.121609 -8.34271e-22)
(0.963416 0.124411 0)
(0.966525 0.127146 7.38771e-22)
(0.969891 0.129734 -6.4378e-22)
(0.973473 0.132081 -5.39666e-22)
(0.977291 0.134235 3.47951e-23)
(0.981381 0.136226 1.78121e-22)
(0.985668 0.1379 -4.67907e-22)
(0.990094 0.139233 -4.12269e-23)
(0.994712 0.140283 0)
(0.999515 0.141032 -2.53265e-22)
(1.00442 0.141409 -9.70562e-22)
(1.00934 0.14138 -8.74968e-22)
(1.01429 0.140979 2.13699e-21)
(1.01928 0.14021 -1.5759e-21)
(1.02427 0.139067 1.08379e-21)
(1.02916 0.137531 0)
(1.03388 0.135627 1.43386e-21)
(1.03847 0.133378 -1.60595e-21)
(1.04291 0.130793 0)
(1.04719 0.127884 1.79299e-21)
(1.05125 0.124677 4.18711e-21)
(1.05502 0.121221 -6.64239e-21)
(1.05851 0.117542 4.55624e-21)
(1.06176 0.113638 2.54909e-21)
(1.06474 0.109529 -3.96727e-21)
(1.06745 0.105237 -1.45204e-21)
(1.06986 0.100805 -1.41488e-21)
(1.07196 0.0962855 0)
(1.07378 0.0916825 0)
(1.07531 0.0869849 0)
(1.07656 0.0822166 4.14993e-22)
(1.07752 0.0774013 -4.43411e-22)
(1.07821 0.0725619 4.31627e-22)
(0.951056 0.100522 -4.92195e-22)
(0.952862 0.103506 5.09533e-22)
(0.954733 0.106418 -4.83801e-22)
(0.956692 0.109316 -4.56697e-22)
(0.958797 0.112125 1.39056e-21)
(0.961066 0.114886 -1.65471e-21)
(0.963537 0.117569 6.44449e-23)
(0.966196 0.120107 -6.66088e-22)
(0.969076 0.122579 -1.16786e-21)
(0.972183 0.124919 1.5648e-21)
(0.975483 0.127042 -1.85661e-22)
(0.978992 0.128991 -1.66118e-22)
(0.982743 0.130793 -5.95343e-22)
(0.98667 0.132315 1.87751e-22)
(0.990725 0.133534 -1.52358e-22)
(0.994953 0.134501 2.82438e-22)
(0.999349 0.135201 -2.84717e-22)
(1.00384 0.135569 4.47941e-22)
(1.00836 0.135574 2.60152e-22)
(1.01291 0.135246 -4.43192e-22)
(1.0175 0.134586 0)
(1.02211 0.133587 0)
(1.02664 0.13223 0)
(1.03103 0.130534 2.49767e-21)
(1.0353 0.128518 -2.52644e-21)
(1.03946 0.126189 0)
(1.04348 0.123555 -1.69524e-21)
(1.04731 0.120639 3.64822e-21)
(1.05088 0.11748 -5.69254e-21)
(1.0542 0.114103 0)
(1.0573 0.110506 2.22963e-21)
(1.06017 0.106706 -1.14807e-21)
(1.06279 0.102724 -2.48819e-21)
(1.06513 0.0985954 3.86474e-21)
(1.06719 0.0943705 -1.42949e-21)
(1.06897 0.0900527 3.45719e-21)
(1.07049 0.0856333 0)
(1.07175 0.0811344 -2.63799e-23)
(1.07273 0.0765785 1.88131e-22)
(1.07345 0.071987 -1.10518e-23)
(0.954494 0.0983563 2.59124e-22)
(0.9562 0.101086 -3.6611e-23)
(0.957968 0.103747 4.63188e-22)
(0.959817 0.10639 8.02951e-22)
(0.9618 0.108949 0)
(0.96393 0.11146 1.45497e-21)
(0.966241 0.113897 -6.39656e-22)
(0.96872 0.1162 1.27829e-21)
(0.971397 0.11844 1.08734e-21)
(0.974275 0.120558 -8.62377e-22)
(0.977326 0.12248 8.68414e-22)
(0.980563 0.124246 5.64279e-22)
(0.984014 0.125877 -4.41152e-22)
(0.987625 0.127258 5.21314e-22)
(0.991351 0.128368 -2.35061e-22)
(0.995234 0.129253 3.58158e-23)
(0.999269 0.129899 -1.7128e-22)
(1.0034 0.130248 -2.80973e-22)
(1.00755 0.130272 9.30612e-22)
(1.01174 0.129995 -4.32212e-22)
(1.01598 0.129419 6.25665e-22)
(1.02023 0.128535 0)
(1.02443 0.127324 0)
(1.0285 0.125801 0)
(1.03249 0.123983 2.43169e-21)
(1.03638 0.121873 -1.01439e-21)
(1.04014 0.119479 -2.72194e-21)
(1.04374 0.116817 -1.48737e-21)
(1.04712 0.113923 -3.4404e-21)
(1.05027 0.110816 5.20824e-21)
(1.05322 0.107496 3.91451e-21)
(1.05596 0.103978 -6.12697e-21)
(1.05848 0.100279 3.14388e-21)
(1.06074 0.0964327 0)
(1.06273 0.0924825 1.1742e-21)
(1.06448 0.0884329 -4.34651e-21)
(1.06598 0.0842771 6.5324e-22)
(1.06722 0.0800354 -6.69711e-22)
(1.06821 0.0757287 -6.90552e-22)
(1.06894 0.0713772 3.86727e-22)
(0.957622 0.0963474 -4.26175e-22)
(0.959235 0.0988494 -3.18568e-23)
(0.960908 0.101286 7.59876e-22)
(0.962656 0.103703 -1.48489e-21)
(0.964527 0.106039 7.19278e-22)
(0.96653 0.108328 0)
(0.968697 0.110546 0)
(0.971015 0.11264 0)
(0.973509 0.114673 -4.98412e-22)
(0.976183 0.116593 3.59593e-22)
(0.979012 0.118336 -1.37985e-21)
(0.982007 0.119935 7.00534e-22)
(0.985194 0.121412 5.72893e-22)
(0.988523 0.122663 -3.11269e-22)
(0.991958 0.123672 3.32272e-23)
(0.995534 0.124478 -3.35013e-23)
(0.999248 0.125068 1.63238e-22)
(1.00305 0.125391 2.67658e-22)
(1.00688 0.125422 6.90373e-22)
(1.01074 0.125181 5.43101e-22)
(1.01466 0.124669 -1.6319e-21)
(1.01859 0.123877 1.46358e-21)
(1.02248 0.122787 -7.18001e-22)
(1.02626 0.121409 -1.90909e-21)
(1.02998 0.119759 5.04132e-21)
(1.03361 0.117839 -9.8006e-22)
(1.03713 0.115653 1.19866e-21)
(1.04051 0.113215 1.41299e-21)
(1.04369 0.110555 3.02511e-21)
(1.04667 0.107691 5.27679e-23)
(1.04947 0.104621 -1.657e-21)
(1.05208 0.101359 -9.31323e-22)
(1.05449 0.0979202 -9.84867e-22)
(1.05666 0.0943336 0)
(1.05859 0.0906391 -2.12747e-21)
(1.06028 0.0868412 -5.72286e-23)
(1.06174 0.0829342 1.69861e-21)
(1.06297 0.078937 2.67219e-21)
(1.06394 0.0748688 -1.51591e-21)
(1.06469 0.0707486 5.85582e-22)
(0.960474 0.0944789 9.80679e-22)
(0.962002 0.0967768 -5.74773e-22)
(0.963586 0.0990124 -1.07051e-21)
(0.965241 0.101226 3.38249e-22)
(0.967008 0.103363 0)
(0.968896 0.105453 0)
(0.970931 0.107475 0)
(0.973102 0.109383 4.56504e-22)
(0.975432 0.111231 7.8188e-22)
(0.977924 0.112974 -4.06761e-22)
(0.980553 0.114556 0)
(0.983332 0.116006 -6.61413e-22)
(0.986282 0.117343 4.71967e-22)
(0.989361 0.118476 2.70758e-22)
(0.992535 0.11939 3.26757e-23)
(0.995837 0.12012 -3.3788e-22)
(0.999263 0.120655 1.95769e-22)
(1.00277 0.120949 -4.38673e-22)
(1.0063 0.120979 -6.5878e-22)
(1.00988 0.120762 -9.03922e-22)
(1.01349 0.120299 9.13318e-22)
(1.01714 0.119582 0)
(1.02074 0.118592 -7.27952e-22)
(1.02426 0.117337 -1.68099e-21)
(1.02772 0.11583 7.66675e-22)
(1.0311 0.114073 0)
(1.0344 0.112069 -1.14129e-21)
(1.03757 0.109829 -1.15293e-21)
(1.04056 0.107377 0)
(1.04337 0.10473 -1.44618e-21)
(1.04603 0.101886 -4.5921e-21)
(1.0485 0.0988576 4.79734e-21)
(1.05079 0.095657 -3.37099e-21)
(1.05287 0.0923105 8.80953e-22)
(1.05472 0.0888537 0)
(1.05635 0.0852913 -1.9676e-21)
(1.05777 0.0816187 2.00426e-21)
(1.05896 0.0778531 0)
(1.05992 0.0740123 -1.40145e-22)
(1.06066 0.0701141 0)
(0.96308 0.0927369 -7.94434e-22)
(0.964528 0.094851 -3.21569e-22)
(0.96603 0.0969055 3.21366e-22)
(0.967599 0.0989361 0)
(0.969269 0.100895 0)
(0.971051 0.102807 -4.84383e-22)
(0.972966 0.104654 -3.97532e-22)
(0.975004 0.106394 4.48379e-22)