/*--------------------------------*- C++ -*----------------------------------*\
| =========                 |                                                 |
| \\      /  F ield         | OpenFOAM: The Open Source CFD Toolbox           |
|  \\    /   O peration     | Version:  3.0.1                                 |
|   \\  /    A nd           | Web:      www.OpenFOAM.org                      |
|    \\/     M anipulation  |                                                 |
\*---------------------------------------------------------------------------*/
FoamFile
{
    version     2.0;
    format      ascii;
    class       volScalarField;
    location    "500";
    object      nuTilda;
}
// * * * * * * * * * * * * * * * * * * * * * * * * * * * * * * * * * * * * * //

dimensions      [0 2 -1 0 0 0 0];

internalField   nonuniform List<scalar> 
58000
(
0.000766592
0.00066724
0.000559178
0.00049614
0.000465876
0.0004447
0.000429969
0.000415757
0.000406369
0.00040073
0.000396296
0.00039381
0.000393643
0.000393967
0.000394769
0.000396333
0.000398598
0.000401294
0.000404243
0.000407464
0.00041099
0.000414664
0.000418525
0.000422363
0.000426336
0.000430107
0.000433887
0.000437642
0.000441224
0.000444733
0.000447909
0.000450887
0.000453609
0.000456016
0.000458147
0.000459626
0.000460347
0.000460522
0.000460101
0.000461151
0.00297025
0.002662
0.00232462
0.00201033
0.00175328
0.00154662
0.00138676
0.00125837
0.00116052
0.00108784
0.00103063
0.000987677
0.000955699
0.000928509
0.00090261
0.00088203
0.000866702
0.00085347
0.000841246
0.000831613
0.000825052
0.000819684
0.000814923
0.000810452
0.000807936
0.000805733
0.000803548
0.000801322
0.000798874
0.0007972
0.000795577
0.000792465
0.000788003
0.000782511
0.000776465
0.000768724
0.000759837
0.000751053
0.000743282
0.000741121
0.00519623
0.00483157
0.00440299
0.00394444
0.00352623
0.00316574
0.00287931
0.00264351
0.00245244
0.00230315
0.0021821
0.00208161
0.00200558
0.00194453
0.00189104
0.00184876
0.00181677
0.00179014
0.00176667
0.00174827
0.00173516
0.00172419
0.00171405
0.00170418
0.00169719
0.00168973
0.00168105
0.00167143
0.00166092
0.00165212
0.00164328
0.00163396
0.00162415
0.00161343
0.00160154
0.00158684
0.00157002
0.00155294
0.00153737
0.00153021
0.00742496
0.00702666
0.00653546
0.00600881
0.0055003
0.00502499
0.0046231
0.00427868
0.00399159
0.00376282
0.00357027
0.00340911
0.00328407
0.00318204
0.00309329
0.00302252
0.00296774
0.00292165
0.00288089
0.00284792
0.00282288
0.00280134
0.00277965
0.00275763
0.00274055
0.00272521
0.00270969
0.00269372
0.00267673
0.00266131
0.00264531
0.00262794
0.00260931
0.00258952
0.00256946
0.00254622
0.00252013
0.00249333
0.00246834
0.00245221
0.00962697
0.00921237
0.00869119
0.00812434
0.00755682
0.00701432
0.00653221
0.00610067
0.00572701
0.0054203
0.00515635
0.00493103
0.00475252
0.00460461
0.00447472
0.00436944
0.00428635
0.00421559
0.00415218
0.00409933
0.00405653
0.00401872
0.00398331
0.00394903
0.00392229
0.00389708
0.00387108
0.00384426
0.00381647
0.00379267
0.00376809
0.00374148
0.00371292
0.00368264
0.00365247
0.00361886
0.00358185
0.00354375
0.00350762
0.00348032
0.0118001
0.0113765
0.0108405
0.010249
0.00965065
0.00906267
0.0085263
0.0080342
0.00759248
0.00721877
0.00688981
0.00660277
0.00637029
0.00617483
0.0060015
0.00585819
0.00574269
0.00564344
0.00555272
0.00547531
0.0054127
0.00535749
0.00530664
0.00525639
0.00521422
0.00517601
0.0051382
0.00510035
0.00506072
0.00502447
0.00498887
0.0049522
0.0049128
0.00487091
0.00482907
0.00478356
0.00473419
0.00468339
0.00463458
0.00459429
0.0139479
0.0135195
0.0129771
0.0123736
0.0117579
0.0111412
0.0105687
0.0100298
0.00953808
0.00911227
0.00872941
0.00838662
0.00810321
0.00786129
0.0076453
0.00746262
0.00731219
0.0071803
0.00706055
0.00695799
0.00687455
0.00679906
0.00672762
0.00665945
0.00660256
0.00655004
0.00649791
0.00644546
0.00639279
0.00634386
0.00629574
0.00624676
0.00619456
0.00613945
0.00608435
0.00602553
0.00596251
0.0058978
0.00583501
0.00578028
0.0160743
0.0156432
0.0150989
0.0144904
0.0138658
0.0132325
0.012635
0.0120655
0.0115361
0.0110661
0.0106373
0.0102495
0.00992189
0.00963686
0.00937748
0.00915632
0.0089723
0.00880934
0.00866032
0.00853151
0.00842296
0.00832568
0.00823399
0.00814701
0.0080715
0.00800269
0.00793585
0.00786826
0.00779973
0.00773711
0.00767533
0.0076123
0.00754588
0.00747635
0.00740682
0.00733359
0.00725588
0.00717622
0.00709833
0.00702797
0.0181828
0.0177504
0.0172064
0.0165967
0.0159682
0.0153267
0.0147137
0.0141235
0.0135645
0.0130636
0.012599
0.0121712
0.0118042
0.0114806
0.0111829
0.0109257
0.01071
0.0105163
0.0103374
0.0101802
0.0100468
0.00992775
0.00981461
0.00970614
0.00961222
0.00952581
0.00944105
0.00935757
0.00927282
0.00919474
0.00911761
0.00903822
0.00895698
0.0088724
0.00878762
0.00869907
0.00860579
0.00851028
0.00841636
0.00832939
0.0202765
0.0198437
0.0193014
0.0186927
0.0180617
0.0174182
0.0167969
0.0161935
0.0156144
0.0150889
0.0145944
0.0141361
0.0137367
0.0133794
0.0130472
0.012756
0.0125071
0.0122834
0.0120761
0.0118932
0.0117349
0.0115917
0.0114573
0.0113276
0.0112127
0.0111083
0.0110056
0.0109045
0.0108022
0.0107073
0.0106141
0.0105185
0.0104212
0.0103208
0.0102198
0.010115
0.0100053
0.00989321
0.00978246
0.00967812
0.022358
0.0219254
0.0213858
0.0207803
0.0201505
0.0195064
0.0188802
0.0182681
0.0176756
0.0171305
0.0166149
0.0161314
0.0157046
0.0153169
0.0149539
0.0146326
0.0143545
0.0141035
0.0138685
0.013658
0.013475
0.0133092
0.0131514
0.013001
0.0128658
0.0127411
0.0126202
0.0124996
0.0123795
0.0122664
0.0121572
0.0120452
0.0119317
0.0118155
0.0116972
0.0115754
0.0114486
0.0113193
0.0111912
0.0110689
0.0244292
0.0239971
0.0234609
0.0228596
0.0222329
0.0215902
0.0209616
0.0203427
0.0197428
0.0191847
0.0186522
0.0181467
0.0176963
0.0172856
0.0168971
0.0165489
0.0162437
0.0159646
0.0157031
0.0154682
0.0152613
0.0150712
0.0148913
0.0147181
0.0145629
0.0144185
0.0142787
0.014139
0.0139989
0.0138686
0.0137424
0.0136128
0.0134823
0.0133491
0.0132137
0.0130747
0.0129306
0.0127839
0.012638
0.0124973
0.0264919
0.0260604
0.0255279
0.0249314
0.024309
0.0236694
0.0230409
0.0224191
0.0218137
0.0212461
0.0207011
0.0201791
0.0197096
0.019278
0.0188665
0.0184943
0.018165
0.0178614
0.0175748
0.0173143
0.0170847
0.0168721
0.0166689
0.0164745
0.0162972
0.0161322
0.015974
0.0158158
0.0156568
0.0155085
0.0153648
0.0152173
0.015069
0.0149182
0.0147653
0.014609
0.0144476
0.0142831
0.0141191
0.0139598
0.0285476
0.0281166
0.0275878
0.0269965
0.026379
0.0257434
0.0251168
0.0244944
0.0238857
0.0233111
0.0227563
0.022222
0.021737
0.0212871
0.0208541
0.0204602
0.0201091
0.0197844
0.0194752
0.0191914
0.0189379
0.0187041
0.0184797
0.0182642
0.0180658
0.0178799
0.0177009
0.0175247
0.0173474
0.0171809
0.0170194
0.016854
0.016687
0.016519
0.0163488
0.0161752
0.0159961
0.0158137
0.0156315
0.0154532
0.0305979
0.0301664
0.0296412
0.0290553
0.0284432
0.0278125
0.0271888
0.0265675
0.0259573
0.0253777
0.0248141
0.0242713
0.023774
0.0233077
0.0228593
0.0224472
0.0220758
0.0217285
0.0213972
0.0210926
0.0208171
0.0205611
0.0203167
0.0200803
0.0198617
0.019656
0.0194565
0.0192622
0.0190666
0.0188809
0.0187022
0.0185196
0.0183349
0.0181494
0.0179616
0.0177703
0.0175735
0.017373
0.0171723
0.016975
0.0326395
0.0322095
0.0316886
0.0311084
0.0305021
0.0298768
0.0292568
0.0286377
0.0280277
0.0274453
0.0268761
0.0263258
0.0258182
0.0253397
0.0248776
0.0244498
0.0240606
0.0236934
0.0233407
0.0230135
0.0227164
0.0224408
0.0221761
0.0219169
0.0216792
0.0214567
0.0212385
0.0210246
0.0208119
0.0206081
0.0204105
0.0202113
0.0200094
0.0198064
0.019601
0.0193919
0.0191772
0.0189585
0.0187391
0.0185226
0.034675
0.0342466
0.0337303
0.0331563
0.032556
0.0319365
0.0313209
0.0307048
0.0300961
0.0295125
0.0289398
0.0283834
0.027866
0.0273787
0.0269052
0.0264638
0.0260587
0.0256735
0.0252998
0.0249535
0.0246364
0.0243393
0.0240547
0.0237775
0.023521
0.0232809
0.0230444
0.0228118
0.0225817
0.0223599
0.0221443
0.0219277
0.0217082
0.0214876
0.0212643
0.0210375
0.0208047
0.0205678
0.0203297
0.0200939
0.0367051
0.0362785
0.035767
0.0351993
0.0346055
0.0339918
0.033381
0.0327686
0.0321621
0.0315784
0.0310037
0.0304434
0.0299191
0.0294233
0.0289399
0.0284862
0.028067
0.0276658
0.0272738
0.0269077
0.0265734
0.0262574
0.0259545
0.0256585
0.0253834
0.0251256
0.0248712
0.0246204
0.0243728
0.0241334
0.0238999
0.023666
0.0234289
0.0231905
0.0229494
0.0227047
0.022454
0.0221988
0.0219421
0.0216871
0.03873
0.0383054
0.0377987
0.0372377
0.0366508
0.0360431
0.0354373
0.034829
0.0342253
0.0336424
0.033067
0.0325041
0.0319746
0.0314717
0.0309795
0.0305149
0.0300825
0.0296672
0.0292592
0.0288759
0.0285251
0.0281903
0.0278678
0.0275554
0.0272628
0.0269875
0.0267156
0.0264472
0.0261826
0.0259258
0.0256748
0.0254236
0.025169
0.0249129
0.024654
0.0243916
0.024123
0.0238496
0.0235744
0.0233003
0.0407497
0.0403272
0.0398256
0.0392715
0.0386927
0.0380903
0.0374895
0.0368857
0.0362854
0.0357042
0.035129
0.0345646
0.0340311
0.0335223
0.0330226
0.0325481
0.0321026
0.0316752
0.0312533
0.030854
0.0304853
0.030135
0.0297956
0.0294668
0.0291568
0.0288629
0.028575
0.0282899
0.0280085
0.0277347
0.0274665
0.0271983
0.0269264
0.0266524
0.0263761
0.0260962
0.02581
0.0255187
0.0252251
0.0249319
0.0427642
0.0423439
0.0418473
0.0412997
0.040728
0.0401323
0.0395372
0.0389384
0.0383422
0.0377633
0.0371892
0.0366242
0.0360878
0.035574
0.035068
0.0345854
0.0341295
0.0336889
0.0332546
0.032841
0.0324567
0.0320907
0.0317349
0.03139
0.0310634
0.0307526
0.0304483
0.0301465
0.0298483
0.0295579
0.0292731
0.0289882
0.0286991
0.0284067
0.0281139
0.0278172
0.0275136
0.0272046
0.0268927
0.0265806
0.0447734
0.0443555
0.043864
0.043323
0.0427579
0.0421692
0.0415803
0.040987
0.0403951
0.0398194
0.0392473
0.0386823
0.038144
0.0376258
0.0371141
0.0366247
0.0361617
0.0357104
0.0352622
0.0348346
0.0344367
0.0340548
0.0336831
0.0333224
0.0329801
0.0326534
0.0323333
0.032015
0.0316992
0.0313935
0.0310929
0.0307918
0.0304861
0.0301768
0.0298672
0.0295534
0.0292325
0.0289058
0.0285758
0.028245
0.0467768
0.0463616
0.0458755
0.0453414
0.0447828
0.044201
0.0436187
0.0430313
0.0424439
0.0418716
0.0413034
0.0407382
0.0401997
0.0396766
0.0391597
0.0386637
0.0381928
0.0377319
0.0372724
0.0368318
0.0364188
0.0360241
0.0356379
0.0352611
0.034905
0.0345634
0.0342282
0.0338943
0.0335624
0.033241
0.0329246
0.0326077
0.032286
0.0319606
0.0316342
0.0313033
0.0309652
0.030621
0.0302731
0.0299238
0.048774
0.0483618
0.0478815
0.0473554
0.0468023
0.0462274
0.0456518
0.0450718
0.044488
0.0439188
0.0433532
0.0427894
0.0422503
0.0417245
0.0412035
0.0407016
0.0402231
0.0397534
0.0392838
0.0388317
0.0384059
0.0379983
0.0375985
0.0372075
0.0368373
0.0364813
0.0361315
0.0357825
0.0354353
0.0350986
0.0347667
0.0344343
0.0340971
0.0337569
0.0334133
0.0330654
0.0327103
0.0323488
0.0319832
0.0316158
0.0507644
0.0503554
0.0498809
0.0493613
0.0488151
0.0482474
0.0476786
0.0471048
0.0465262
0.0459607
0.0453979
0.044836
0.0442968
0.0437694
0.043245
0.0427378
0.0422521
0.041774
0.0412953
0.0408328
0.0403955
0.0399758
0.0395632
0.039159
0.0387753
0.0384053
0.0380415
0.037678
0.037316
0.0369646
0.0366176
0.03627
0.0359175
0.0355618
0.0352022
0.0348379
0.0344662
0.0340878
0.033705
0.0333198
0.0527472
0.0523419
0.0518743
0.0513602
0.0508209
0.0502609
0.0496992
0.0491314
0.0485583
0.0479971
0.0474376
0.046878
0.0463394
0.0458112
0.0452839
0.0447717
0.0442791
0.0437927
0.0433057
0.0428338
0.0423858
0.0419549
0.0415305
0.0411138
0.0407173
0.040334
0.0399565
0.0395792
0.0392031
0.0388374
0.0384758
0.0381135
0.037746
0.037375
0.0369998
0.0366197
0.0362318
0.035837
0.0354374
0.0350348
0.0547217
0.0543201
0.053858
0.0533507
0.052819
0.0522672
0.0517141
0.0511516
0.0505842
0.0500278
0.0494718
0.0489152
0.0483776
0.0478504
0.0473199
0.0468028
0.0463033
0.0458078
0.0453139
0.0448335
0.0443757
0.0439343
0.0434987
0.0430704
0.0426618
0.0422657
0.0418752
0.0414846
0.0410952
0.0407158
0.0403401
0.0399634
0.0395814
0.0391955
0.0388051
0.0384096
0.0380061
0.0375954
0.0371794
0.0367598
0.0566869
0.0562905
0.0558328
0.0553325
0.0548087
0.0542654
0.0537195
0.0531637
0.0526029
0.052053
0.0514999
0.0509475
0.0504097
0.0498823
0.0493519
0.0488302
0.0483245
0.0478212
0.0473195
0.0468308
0.0463638
0.0459126
0.0454667
0.0450275
0.0446074
0.044199
0.0437958
0.043393
0.042991
0.0425986
0.0422093
0.0418188
0.0414226
0.0410223
0.0406172
0.0402067
0.0397881
0.0393619
0.03893
0.038494
0.0586414
0.058249
0.0577975
0.0573048
0.0567895
0.0562558
0.0557162
0.0551673
0.0546134
0.0540685
0.0535196
0.0529706
0.0524346
0.0519068
0.0513755
0.0508523
0.0503414
0.04983
0.0493208
0.0488244
0.0483488
0.0478886
0.0474331
0.0469838
0.0465529
0.0461328
0.0457164
0.0453034
0.0448897
0.0444846
0.0440822
0.0436783
0.0432684
0.0428542
0.042435
0.0420101
0.0415768
0.0411356
0.0406883
0.0402365
0.0605849
0.0601966
0.0597518
0.0592673
0.0587605
0.058235
0.0577029
0.0571618
0.0566161
0.0560755
0.055531
0.0549854
0.0544527
0.053924
0.053391
0.0528642
0.052348
0.0518311
0.0513159
0.0508127
0.0503295
0.049861
0.0493967
0.0489381
0.0484973
0.0480664
0.0476388
0.0472148
0.0467898
0.0463727
0.0459578
0.045541
0.0451179
0.0446903
0.0442574
0.0438187
0.0433714
0.0429158
0.0424537
0.0419866
0.0625167
0.0621329
0.0616951
0.0612194
0.0607222
0.0602036
0.0596793
0.0591461
0.0586074
0.0580726
0.0575342
0.0569908
0.05646
0.0559331
0.0553989
0.0548672
0.0543443
0.0538234
0.0533034
0.0527945
0.0523045
0.0518286
0.0513564
0.0508894
0.0504395
0.0499987
0.0495607
0.0491263
0.0486904
0.0482618
0.0478349
0.0474056
0.0469699
0.0465295
0.0460837
0.0456317
0.0451709
0.0447015
0.0442253
0.0437436
0.0644361
0.0640569
0.0636265
0.0631606
0.0626708
0.0621605
0.0616446
0.0611208
0.0605881
0.0600591
0.0595256
0.058986
0.0584568
0.0579295
0.0573941
0.0568605
0.0563323
0.0558071
0.0552828
0.0547689
0.054273
0.0537905
0.0533112
0.0528367
0.0523783
0.0519284
0.051481
0.0510366
0.0505905
0.050151
0.0497125
0.049271
0.048823
0.0483709
0.0479129
0.0474484
0.0469747
0.0464921
0.0460023
0.0455066
0.0663421
0.0659679
0.0655449
0.0650873
0.0646061
0.0641049
0.0635978
0.0630821
0.0625572
0.0620355
0.0615061
0.0609714
0.0604438
0.0599149
0.0593771
0.0588392
0.0583089
0.0577806
0.0572529
0.0567349
0.0562339
0.0557457
0.0552601
0.0547788
0.0543128
0.0538546
0.0533984
0.0529449
0.0524891
0.0520393
0.0515898
0.0511359
0.0506772
0.050214
0.0497444
0.0492679
0.0487819
0.0482868
0.0477841
0.0472752
0.0682338
0.0678648
0.0674506
0.0670002
0.0665279
0.0660366
0.0655393
0.0650304
0.0645141
0.0639976
0.0634743
0.0629423
0.0624163
0.0618883
0.0613486
0.0608069
0.0602739
0.0597432
0.0592128
0.0586916
0.0581864
0.0576932
0.0572022
0.0567148
0.056242
0.0557763
0.055312
0.05485
0.0543853
0.0539259
0.0534661
0.0530015
0.0525322
0.0520581
0.0515775
0.0510895
0.0505919
0.0500848
0.0495699
0.0490486
0.0701101
0.0697461
0.0693395
0.068898
0.0684356
0.0679549
0.0674653
0.0669644
0.0664553
0.0659449
0.0654267
0.0648991
0.0643744
0.0638455
0.0633021
0.0627601
0.062226
0.0616938
0.0611617
0.0606381
0.0601295
0.0596322
0.0591366
0.058644
0.0581651
0.0576925
0.0572208
0.056751
0.056278
0.0558097
0.0553405
0.0548661
0.0543867
0.0539024
0.0534112
0.0529124
0.0524036
0.0518852
0.0513589
0.0508261
0.0719704
0.0716112
0.071212
0.0707801
0.0703283
0.0698562
0.0693757
0.0688844
0.0683818
0.0678784
0.0673642
0.0668382
0.0663137
0.0657827
0.0652402
0.0646987
0.0641645
0.0636318
0.0630988
0.0625736
0.0620625
0.0615619
0.0610624
0.0605654
0.0600811
0.0596024
0.059124
0.0586469
0.0581663
0.0576898
0.0572119
0.0567285
0.0562397
0.0557458
0.0552446
0.0547356
0.0542164
0.0536874
0.0531503
0.052607
0.073814
0.0734593
0.0730674
0.0726458
0.0722025
0.0717403
0.0712702
0.0707866
0.0702924
0.0697943
0.0692829
0.0687604
0.0682363
0.0677042
0.0671626
0.0666222
0.0660887
0.0655563
0.0650234
0.0644974
0.0639846
0.0634815
0.0629789
0.0624781
0.0619892
0.061505
0.0610205
0.0605369
0.0600491
0.0595651
0.0590793
0.0585876
0.0580902
0.0575874
0.0570769
0.0565583
0.0560293
0.0554904
0.0549435
0.0543907
0.07564
0.0752897
0.0749042
0.0744913
0.074058
0.0736068
0.0731453
0.0726711
0.0721836
0.0716891
0.0711824
0.0706619
0.0701367
0.0696073
0.0690681
0.0685299
0.0679979
0.0674667
0.0669346
0.0664088
0.0658952
0.0653903
0.0648852
0.0643814
0.0638884
0.0633994
0.0629095
0.0624198
0.061925
0.0614346
0.0609418
0.0604426
0.0599373
0.0594262
0.0589071
0.0583796
0.0578414
0.0572934
0.0567375
0.0561764
0.0774479
0.0771016
0.0767221
0.0763172
0.0758944
0.0754523
0.075001
0.0745347
0.0740524
0.0735632
0.0730596
0.0725396
0.0720181
0.0714921
0.0709565
0.0704213
0.0698916
0.0693624
0.0688319
0.0683071
0.0677935
0.0672875
0.0667807
0.0662743
0.0657779
0.0652848
0.0647902
0.0642952
0.0637945
0.063298
0.0627986
0.0622926
0.0617802
0.0612615
0.0607344
0.0601984
0.0596518
0.0590954
0.0585315
0.0579635
0.079237
0.0788945
0.0785205
0.0781226
0.0777083
0.0772766
0.0768343
0.0763748
0.0758999
0.0754135
0.0749122
0.0743974
0.0738803
0.0733586
0.0728272
0.0722958
0.0717692
0.0712426
0.0707146
0.0701917
0.0696792
0.0691725
0.0686643
0.068156
0.0676568
0.0671601
0.0666615
0.0661618
0.0656561
0.065154
0.0646487
0.0641366
0.0636181
0.0630923
0.0625576
0.0620138
0.0614595
0.0608955
0.0603247
0.0597511
0.0810067
0.080668
0.0802991
0.0799074
0.0795003
0.0790767
0.0786426
0.0781924
0.0777247
0.0772419
0.076745
0.0762353
0.0757234
0.0752065
0.07468
0.074153
0.0736302
0.0731068
0.0725818
0.0720616
0.0715522
0.0710444
0.0705351
0.0700255
0.0695242
0.0690245
0.0685224
0.0680187
0.0675085
0.0670015
0.066491
0.0659736
0.0654507
0.0649176
0.0643756
0.0638247
0.0632633
0.0626926
0.062116
0.0615386
0.0827562
0.0824213
0.0820575
0.0816718
0.081271
0.0808545
0.0804276
0.079985
0.0795245
0.0790479
0.0785568
0.0780532
0.0775469
0.0770355
0.0765144
0.0759924
0.0754737
0.0749543
0.0744327
0.0739154
0.0734081
0.0729011
0.0723919
0.0718818
0.071379
0.0708771
0.070372
0.0698648
0.0693508
0.0688394
0.0683242
0.067802
0.0672741
0.0667352
0.0661871
0.0656299
0.0650623
0.0644859
0.0639047
0.0633251
0.0844849
0.0841539
0.0837951
0.0834152
0.0830207
0.0826108
0.0821907
0.0817551
0.0813017
0.0808319
0.0803476
0.0798506
0.0793505
0.078845
0.0783298
0.0778132
0.0772994
0.0767842
0.0762667
0.0757527
0.0752478
0.0747422
0.0742339
0.0737241
0.0732204
0.0727167
0.0722092
0.071699
0.0711817
0.0706666
0.0701473
0.0696208
0.0690883
0.0685444
0.0679911
0.0674284
0.0668555
0.0662744
0.0656898
0.0651099
0.0861919
0.0858649
0.0855113
0.0851372
0.0847489
0.0843456
0.0839321
0.0835034
0.083057
0.0825944
0.0821171
0.0816272
0.0811338
0.0806346
0.0801257
0.079615
0.0791064
0.0785961
0.0780831
0.0775731
0.0770708
0.0765672
0.0760604
0.0755519
0.0750477
0.0745425
0.0740329
0.0735199
0.073
0.072482
0.0719593
0.0714292
0.0708927
0.0703446
0.0697867
0.0692193
0.0686419
0.068057
0.0674703
0.0668921
0.0878765
0.0875537
0.0872053
0.0868372
0.0864551
0.0860584
0.0856515
0.0852296
0.0847905
0.084335
0.0838651
0.0833826
0.0828962
0.0824037
0.0819014
0.0813969
0.080894
0.0803891
0.0798813
0.0793761
0.0788766
0.0783751
0.0778704
0.077365
0.0768596
0.0763532
0.0758423
0.075326
0.0748047
0.0742846
0.0737594
0.0732263
0.0726865
0.0721348
0.071573
0.0710017
0.0704205
0.0698328
0.0692453
0.0686708
0.0895379
0.0892195
0.0888765
0.0885143
0.0881386
0.0877486
0.0873484
0.0869334
0.0865016
0.0860535
0.0855911
0.0851163
0.084637
0.0841515
0.0836562
0.0831583
0.0826614
0.0821623
0.0816603
0.0811616
0.0806642
0.0801649
0.0796624
0.0791588
0.078654
0.0781475
0.077637
0.0771183
0.0765955
0.0760738
0.0755466
0.0750114
0.074469
0.0739143
0.0733492
0.0727745
0.0721904
0.0716007
0.0710138
0.070445
0.0911753
0.0908615
0.0905239
0.090168
0.0897987
0.0894154
0.0890221
0.0886142
0.0881897
0.0877492
0.0872946
0.0868275
0.0863557
0.0858774
0.0853894
0.0848984
0.0844079
0.0839149
0.0834188
0.0829254
0.0824317
0.0819353
0.0814354
0.0809339
0.0804303
0.0799239
0.0794119
0.0788938
0.0783709
0.0778483
0.0773201
0.0767839
0.0762392
0.075682
0.0751141
0.0745367
0.0739504
0.0733597
0.0727745
0.0722136
0.092788
0.0924789
0.092147
0.0917973
0.0914347
0.0910583
0.0906719
0.0902713
0.0898543
0.0894215
0.0889747
0.0885156
0.0880515
0.0875807
0.0871002
0.0866165
0.0861328
0.0856463
0.0851564
0.0846681
0.0841785
0.0836858
0.083189
0.0826899
0.0821877
0.0816821
0.0811704
0.0806528
0.0801301
0.0796074
0.0790789
0.0785434
0.0779962
0.0774367
0.0768667
0.0762873
0.0756995
0.0751087
0.0745265
0.0739755
0.0943754
0.0940711
0.093745
0.0934017
0.0930458
0.0926764
0.0922971
0.0919039
0.0914946
0.0910697
0.0906309
0.09018
0.0897237
0.0892606
0.0887879
0.0883117
0.0878353
0.0873559
0.0868729
0.0863896
0.0859042
0.0854154
0.0849227
0.084426
0.0839256
0.0834213
0.0829106
0.082394
0.0818722
0.0813499
0.0808215
0.0802858
0.0797377
0.0791769
0.0786056
0.078025
0.0774365
0.0768465
0.0762685
0.0757293
0.0959367
0.0956375
0.0953173
0.0949805
0.0946313
0.0942691
0.0938971
0.0935114
0.09311
0.0926931
0.0922625
0.0918198
0.0913715
0.0909164
0.0904517
0.0899834
0.0895146
0.0890429
0.0885682
0.0880889
0.0876077
0.0871232
0.0866361
0.0861412
0.0856426
0.0851401
0.0846313
0.0841165
0.0835964
0.083075
0.082547
0.0820113
0.081463
0.0809019
0.08033
0.0797489
0.0791604
0.078572
0.0779994
0.0774739
0.0974713
0.0971773
0.0968632
0.096533
0.0961907
0.0958358
0.0954711
0.0950931
0.0946997
0.094291
0.0938688
0.0934345
0.0929944
0.0925473
0.0920909
0.0916308
0.09117
0.0907063
0.0902382
0.0897642
0.0892876
0.0888076
0.0883247
0.0878333
0.0873376
0.0868375
0.0863313
0.0858193
0.085302
0.084782
0.0842545
0.0837193
0.0831714
0.0826106
0.0820389
0.081458
0.0808703
0.0802843
0.079718
0.0792078
0.0989788
0.0986901
0.0983821
0.0980586
0.0977233
0.0973757
0.0970186
0.0966484
0.0962633
0.095863
0.0954492
0.0950234
0.0945916
0.0941528
0.0937049
0.0932531
0.0928007
0.0923464
0.0918835
0.0914148
0.0909433
0.0904679
0.0899892
0.0895019
0.0890098
0.0885122
0.0880099
0.0875018
0.0869891
0.0864698
0.0859428
0.0854089
0.0848622
0.0843023
0.0837315
0.0831514
0.0825652
0.0819823
0.0814231
0.0809296
0.100459
0.100175
0.0998735
0.0995568
0.0992286
0.0988885
0.0985389
0.0981768
0.0978002
0.0974085
0.0970031
0.0965858
0.0961624
0.0957321
0.0952929
0.0948498
0.0944056
0.093959
0.0935028
0.0930402
0.0925741
0.0921036
0.091629
0.0911464
0.0906588
0.0901652
0.0896667
0.0891629
0.0886536
0.0881367
0.0876117
0.0870796
0.0865346
0.0859763
0.0854069
0.0848282
0.0842441
0.0836648
0.0831135
0.082638
0.10191
0.101632
0.101337
0.101027
0.100706
0.100373
0.100032
0.0996775
0.0993097
0.0989273
0.0985301
0.0981212
0.0977063
0.0972846
0.0968543
0.0964202
0.0959848
0.0955454
0.0950958
0.0946397
0.0941796
0.0937143
0.0932431
0.0927666
0.0922842
0.0917956
0.0913022
0.0908029
0.0902968
0.0897826
0.0892601
0.0887305
0.0881878
0.0876317
0.0870642
0.0864876
0.085906
0.085331
0.0847881
0.0843316
0.103333
0.103061
0.102772
0.102469
0.102155
0.10183
0.101496
0.10115
0.100791
0.100419
0.100029
0.0996288
0.0992226
0.0988098
0.0983887
0.097964
0.0975387
0.0971051
0.0966622
0.0962129
0.0957595
0.0953001
0.0948339
0.0943627
0.0938852
0.0934023
0.0929161
0.0924211
0.0919177
0.0914064
0.0908873
0.0903607
0.089821
0.0892676
0.0887028
0.0881287
0.0875501
0.0869797
0.0864457
0.0860088
0.104727
0.104461
0.104179
0.103883
0.103576
0.103258
0.102932
0.102594
0.102244
0.101881
0.1015
0.101108
0.100711
0.100307
0.0998955
0.0994804
0.0990631
0.0986367
0.098201
0.0977593
0.0973136
0.0968603
0.0963997
0.0959336
0.0954606
0.0949839
0.0945038
0.0940139
0.0935141
0.093007
0.0924924
0.0919698
0.0914336
0.0908834
0.0903216
0.0897505
0.0891754
0.0886099
0.0880852
0.0876683
0.106092
0.105832
0.105556
0.105267
0.104968
0.104658
0.104339
0.104009
0.103667
0.103313
0.102941
0.102558
0.10217
0.101776
0.101374
0.10097
0.100559
0.10014
0.0997118
0.0992782
0.098842
0.098394
0.0979391
0.0974788
0.0970114
0.0965407
0.0960664
0.095582
0.0950873
0.0945852
0.0940758
0.0935573
0.0930248
0.0924782
0.0919198
0.0913522
0.0907809
0.0902208
0.0897053
0.0893087
0.107428
0.107174
0.106904
0.106622
0.10633
0.106028
0.105717
0.105395
0.105061
0.104716
0.104353
0.103979
0.103601
0.103216
0.102825
0.102429
0.102025
0.101614
0.101194
0.100769
0.100341
0.0998997
0.0994513
0.098997
0.0985362
0.0980719
0.0976038
0.0971253
0.0966363
0.0961398
0.0956373
0.0951223
0.0945936
0.094051
0.0934965
0.0929328
0.0923658
0.0918112
0.0913052
0.0909288
0.108734
0.108486
0.108223
0.107948
0.107663
0.107368
0.107065
0.106751
0.106426
0.106089
0.105735
0.105371
0.105002
0.104628
0.104247
0.103858
0.103462
0.103058
0.102647
0.102231
0.101811
0.101377
0.100936
0.100487
0.100035
0.0995773
0.0991157
0.0986434
0.0981603
0.0976697
0.0971729
0.0966629
0.0961388
0.0956008
0.0950508
0.0944915
0.0939292
0.0933804
0.0928839
0.0925273
0.110011
0.109768
0.109512
0.109244
0.108967
0.108679
0.108384
0.108078
0.107762
0.107433
0.107088
0.106734
0.106374
0.106011
0.105637
0.105256
0.104868
0.104474
0.104072
0.103667
0.103253
0.102827
0.102393
0.101952
0.101507
0.101057
0.100602
0.100136
0.0996588
0.0991742
0.0986832
0.0981786
0.0976597
0.0971269
0.0965819
0.0960276
0.0954704
0.0949276
0.0944404
0.0941034
0.111257
0.111021
0.110771
0.110511
0.110241
0.109961
0.109673
0.109376
0.109068
0.108748
0.108412
0.108067
0.107716
0.107361
0.106996
0.106624
0.106245
0.105859
0.105467
0.10507
0.104665
0.104247
0.103821
0.103389
0.102952
0.10251
0.102061
0.101601
0.101131
0.100653
0.100168
0.099669
0.0991558
0.0986286
0.0980892
0.0975403
0.0969886
0.0964521
0.095974
0.095656
0.112474
0.112244
0.112001
0.111747
0.111485
0.111213
0.110933
0.110644
0.110344
0.110033
0.109707
0.10937
0.109028
0.108681
0.108325
0.107961
0.107591
0.107215
0.106834
0.106444
0.106047
0.105639
0.105222
0.104798
0.104372
0.103938
0.103494
0.103039
0.102576
0.102107
0.101627
0.101134
0.100626
0.100105
0.0995722
0.0990292
0.0984834
0.0979533
0.0974842
0.0971843
0.113661
0.113437
0.113201
0.112955
0.112699
0.112435
0.112163
0.111882
0.11159
0.111289
0.110973
0.110644
0.11031
0.109969
0.109623
0.109269
0.108908
0.108541
0.108168
0.107787
0.107398
0.107
0.106592
0.106179
0.10576
0.105333
0.104896
0.104449
0.103992
0.103531
0.103058
0.102571
0.102071
0.101557
0.10103
0.100494
0.0999544
0.0994308
0.0989704
0.0986877
0.114819
0.114601
0.114371
0.114132
0.113884
0.113627
0.113363
0.11309
0.112807
0.112515
0.11221
0.111889
0.111562
0.11123
0.110893
0.110548
0.110195
0.109836
0.109473
0.1091
0.10872
0.108331
0.107933
0.107529
0.107118
0.106698
0.106269
0.105829
0.10538
0.104926
0.104461
0.103983
0.10349
0.102983
0.102464
0.101934
0.101401
0.100884
0.100432
0.100166
0.115947
0.115735
0.115512
0.11528
0.115039
0.11479
0.114533
0.114268
0.113994
0.113711
0.113415
0.113104
0.112786
0.112462
0.112134
0.111797
0.111453
0.111103
0.110747
0.110383
0.110012
0.109633
0.109245
0.108849
0.108446
0.108034
0.107612
0.107181
0.106741
0.106295
0.105838
0.105367
0.104882
0.104383
0.103872
0.103349
0.102823
0.102313
0.101869
0.101618
0.117045
0.11684
0.116624
0.116398
0.116165
0.115923
0.115674
0.115417
0.115152
0.114877
0.11459
0.114288
0.113979
0.113665
0.113345
0.113017
0.112682
0.11234
0.111991
0.111637
0.111275
0.110905
0.110526
0.11014
0.109745
0.109341
0.108928
0.108505
0.108073
0.107636
0.107187
0.106725
0.106249
0.105758
0.105254
0.10474
0.104221
0.103717
0.103281
0.103043
0.118115
0.117916
0.117706
0.117488
0.117262
0.117027
0.116786
0.116537
0.116279
0.116013
0.115736
0.115443
0.115144
0.114838
0.114526
0.114208
0.113882
0.113548
0.113207
0.112862
0.11251
0.112148
0.111778
0.111401
0.111015
0.11062
0.110216
0.109802
0.109378
0.10895
0.10851
0.108057
0.107589
0.107107
0.106611
0.106105
0.105593
0.105097
0.104667
0.104442
0.119155
0.118962
0.11876
0.118548
0.118329
0.118102
0.117869
0.117628
0.117378
0.117121
0.116853
0.11657
0.116279
0.115982
0.115679
0.115369
0.115052
0.114727
0.114395
0.114059
0.113715
0.113363
0.113002
0.112633
0.112256
0.11187
0.111475
0.11107
0.110657
0.110238
0.109807
0.109362
0.108903
0.10843
0.107943
0.107444
0.106941
0.106451
0.106028
0.105815
0.120167
0.11998
0.119784
0.11958
0.119368
0.119149
0.118923
0.118689
0.118448
0.118199
0.11794
0.117668
0.117386
0.117097
0.116801
0.116501
0.116194
0.115878
0.115555
0.115226
0.114892
0.114549
0.114198
0.113837
0.113469
0.113093
0.112707
0.112312
0.111909
0.111499
0.111077
0.110642
0.110191
0.109727
0.109249
0.108758
0.108262
0.10778
0.107364
0.10716
0.121151
0.12097
0.120781
0.120583
0.120378
0.120166
0.119948
0.119722
0.119489
0.119249
0.118999
0.118738
0.118465
0.118184
0.117897
0.117606
0.117307
0.117001
0.116687
0.116366
0.116041
0.115708
0.115365
0.115014
0.114655
0.114287
0.113911
0.113526
0.113135
0.112734
0.112321
0.111894
0.111453
0.110998
0.110528
0.110047
0.109559
0.109083
0.108673
0.108477
0.122107
0.121932
0.121749
0.121558
0.121361
0.121156
0.120945
0.120727
0.120502
0.12027
0.12003
0.119778
0.119514
0.119242
0.118964
0.118681
0.118392
0.118095
0.11779
0.117478
0.117162
0.116838
0.116505
0.116163
0.115813
0.115455
0.115089
0.114714
0.114333
0.113942
0.113538
0.11312
0.112688
0.112242
0.111782
0.111309
0.110829
0.11036
0.109955
0.109767
0.123035
0.122867
0.12269
0.122506
0.122316
0.122118
0.121915
0.121704
0.121487
0.121263
0.121031
0.120789
0.120535
0.120273
0.120003
0.119729
0.119449
0.119161
0.118866
0.118563
0.118255
0.11794
0.117617
0.117285
0.116944
0.116596
0.116239
0.115875
0.115505
0.115122
0.114727
0.114319
0.113897
0.11346
0.113009
0.112545
0.112073
0.111611
0.111211
0.111029
0.123936
0.123774
0.123604
0.123427
0.123243
0.123053
0.122857
0.122654
0.122445
0.122229
0.122006
0.121773
0.121529
0.121276
0.121015
0.120748
0.120478
0.1202
0.119914
0.11962
0.119321
0.119015
0.118701
0.118379
0.118048
0.11771
0.117363
0.117011
0.116649
0.116276
0.11589
0.115492
0.115079
0.114651
0.114209
0.113754
0.113291
0.112835
0.11244
0.112262
0.124811
0.124654
0.124491
0.12432
0.124143
0.12396
0.123772
0.123577
0.123375
0.123167
0.122952
0.122729
0.122497
0.122251
0.121999
0.121741
0.12148
0.121211
0.120934
0.120651
0.12036
0.120063
0.119759
0.119446
0.119125
0.118796
0.11846
0.118118
0.117766
0.117403
0.117027
0.116637
0.116234
0.115816
0.115383
0.114937
0.114481
0.114032
0.113641
0.113466
0.125659
0.125508
0.125351
0.125187
0.125018
0.124842
0.12466
0.124473
0.124279
0.124079
0.123872
0.123658
0.123435
0.123199