/*--------------------------------*- C++ -*----------------------------------*\
| =========                 |                                                 |
| \\      /  F ield         | OpenFOAM: The Open Source CFD Toolbox           |
|  \\    /   O peration     | Version:  3.0.1                                 |
|   \\  /    A nd           | Web:      www.OpenFOAM.org                      |
|    \\/     M anipulation  |                                                 |
\*---------------------------------------------------------------------------*/
FoamFile
{
    version     2.0;
    format      ascii;
    class       volScalarField;
    location    "500";
    object      p;
}
// * * * * * * * * * * * * * * * * * * * * * * * * * * * * * * * * * * * * * //

dimensions      [0 2 -2 0 0 0 0];

internalField   nonuniform List<scalar> 
58000
(
0.542004
0.367547
0.180459
0.0266332
-0.0884023
-0.177032
-0.242854
-0.293108
-0.333994
-0.363985
-0.387291
-0.40664
-0.421189
-0.432774
-0.443466
-0.452523
-0.459084
-0.464885
-0.470564
-0.475438
-0.478749
-0.481649
-0.484654
-0.48739
-0.489091
-0.489815
-0.490735
-0.491701
-0.492363
-0.49227
-0.491596
-0.491213
-0.490996
-0.4907
-0.490083
-0.487796
-0.481101
-0.472931
-0.467855
-0.466502
0.474729
0.425656
0.359689
0.277354
0.18771
0.0971397
0.0142585
-0.0617807
-0.126755
-0.181311
-0.228965
-0.268444
-0.299474
-0.325457
-0.347524
-0.365155
-0.379616
-0.39207
-0.402779
-0.411593
-0.418869
-0.425271
-0.430847
-0.435609
-0.439243
-0.442404
-0.445135
-0.447375
-0.449105
-0.450144
-0.451
-0.451617
-0.451889
-0.451703
-0.450861
-0.449374
-0.447146
-0.445171
-0.444843
-0.446978
0.368221
0.338546
0.299009
0.246245
0.184977
0.117846
0.0497855
-0.0149653
-0.0765013
-0.130187
-0.177599
-0.2197
-0.254607
-0.283364
-0.308539
-0.329891
-0.347169
-0.361721
-0.374514
-0.385561
-0.394653
-0.402242
-0.408928
-0.414865
-0.419895
-0.423837
-0.427148
-0.430006
-0.432431
-0.434361
-0.43565
-0.436541
-0.437121
-0.437367
-0.437242
-0.436664
-0.435649
-0.434368
-0.433182
-0.432125
0.315376
0.299915
0.27878
0.247905
0.208288
0.160966
0.108749
0.0547135
2.9302e-05
-0.0510947
-0.0990448
-0.143374
-0.181774
-0.215042
-0.24486
-0.2704
-0.291659
-0.310029
-0.326222
-0.340084
-0.351647
-0.361563
-0.370312
-0.377978
-0.384381
-0.389698
-0.394309
-0.398295
-0.40166
-0.404324
-0.406405
-0.408055
-0.409297
-0.41011
-0.410467
-0.410444
-0.41015
-0.409652
-0.4091
-0.408621
0.264798
0.254321
0.241294
0.22212
0.196466
0.16399
0.125364
0.0833829
0.0380127
-0.00675068
-0.0504972
-0.0928482
-0.131211
-0.165409
-0.19695
-0.22484
-0.248524
-0.269262
-0.287796
-0.303927
-0.317527
-0.329217
-0.339598
-0.348771
-0.356593
-0.363083
-0.368744
-0.373693
-0.37795
-0.381474
-0.38426
-0.386545
-0.388378
-0.389763
-0.39071
-0.39125
-0.391497
-0.391474
-0.391172
-0.390607
0.229119
0.221268
0.212204
0.199152
0.181562
0.158747
0.130288
0.0982297
0.0618762
0.0243002
-0.0138605
-0.0522492
-0.088437
-0.121755
-0.153334
-0.182033
-0.207006
-0.229303
-0.249521
-0.267352
-0.28259
-0.295846
-0.307713
-0.318249
-0.327293
-0.334885
-0.341575
-0.347469
-0.352578
-0.356853
-0.36032
-0.363244
-0.365668
-0.367599
-0.369042
-0.370045
-0.370732
-0.371104
-0.371125
-0.370859
0.199754
0.19343
0.186564
0.17698
0.164215
0.147588
0.126231
0.101694
0.0728486
0.0419443
0.00960217
-0.0240362
-0.0569059
-0.0880196
-0.118258
-0.146508
-0.171676
-0.194569
-0.215658
-0.234564
-0.250963
-0.265379
-0.278398
-0.290044
-0.300155
-0.308711
-0.316306
-0.323044
-0.328931
-0.333929
-0.338041
-0.341563
-0.344543
-0.34699
-0.348917
-0.350357
-0.351441
-0.352167
-0.352484
-0.352463
0.176132
0.170695
0.165065
0.157499
0.147664
0.134981
0.118482
0.0993714
0.0763649
0.0510648
0.0239839
-0.00493838
-0.0340746
-0.0623322
-0.0904077
-0.117301
-0.141806
-0.16451
-0.185752
-0.205104
-0.222146
-0.237302
-0.251122
-0.263585
-0.274517
-0.283851
-0.292198
-0.299649
-0.306205
-0.311827
-0.316507
-0.320563
-0.32404
-0.326948
-0.329301
-0.331128
-0.332563
-0.333607
-0.334207
-0.334459
0.156533
0.151694
0.146837
0.140526
0.132541
0.12242
0.109242
0.0939853
0.0753712
0.0545407
0.0318904
0.00720902
-0.0182799
-0.0435057
-0.0690465
-0.0940664
-0.117335
-0.139259
-0.160078
-0.179344
-0.196569
-0.21207
-0.226341
-0.239318
-0.250826
-0.26074
-0.269667
-0.277685
-0.284786
-0.290932
-0.296098
-0.300614
-0.304524
-0.307837
-0.310567
-0.312737
-0.314484
-0.315812
-0.31667
-0.317174
0.140083
0.135663
0.131317
0.12583
0.119067
0.110663
0.0997939
0.0872817
0.0719316
0.0545759
0.035517
0.0144504
-0.00773335
-0.0300511
-0.0530004
-0.075917
-0.0976204
-0.118384
-0.138371
-0.157142
-0.174169
-0.189669
-0.204074
-0.217285
-0.229126
-0.23942
-0.248751
-0.257183
-0.264695
-0.271252
-0.27681
-0.281704
-0.285975
-0.289628
-0.292678
-0.295141
-0.297156
-0.298732
-0.299818
-0.300551
0.126092
0.121985
0.117999
0.113086
0.107169
0.0999575
0.0907319
0.0802032
0.0672876
0.0526133
0.03641
0.0183322
-0.000981601
-0.0206634
-0.0411536
-0.0619447
-0.0819497
-0.10135
-0.12025
-0.13824
-0.15478
-0.170004
-0.184282
-0.197484
-0.209439
-0.219924
-0.229493
-0.23819
-0.245984
-0.252839
-0.258695
-0.263884
-0.268439
-0.272365
-0.275676
-0.278382
-0.280622
-0.282406
-0.283688
-0.28462
0.114067
0.110208
0.10649
0.101996
0.0966919
0.090341
0.0823194
0.0732529
0.0621738
0.0495741
0.0356313
0.0199907
0.00310748
-0.0142661
-0.0325257
-0.0512953
-0.0695995
-0.0875585
-0.105241
-0.122274
-0.138129
-0.152871
-0.166818
-0.179816
-0.191701
-0.202213
-0.211867
-0.220693
-0.228646
-0.235693
-0.241756
-0.247156
-0.251922
-0.256055
-0.259568
-0.262466
-0.264886
-0.266839
-0.268282
-0.269383
0.10364
0.0999845
0.0964764
0.0923045
0.087462
0.081755
0.0746418
0.0666787
0.057007
0.046027
0.0338796
0.0202187
0.00536813
-0.010023
-0.0263108
-0.0432255
-0.0599061
-0.0764359
-0.0928616
-0.10885
-0.123897
-0.138018
-0.151485
-0.164129
-0.175796
-0.186199
-0.195811
-0.204644
-0.212649
-0.21979
-0.225973
-0.231506
-0.236413
-0.24069
-0.244349
-0.24739
-0.249947
-0.252031
-0.2536
-0.254838
0.0945268
0.0910456
0.0877099
0.0837954
0.0793149
0.0741065
0.0676983
0.0605892
0.0520173
0.0423184
0.0316077
0.0195585
0.00640357
-0.00729849
-0.0218704
-0.0371233
-0.0523039
-0.0674714
-0.0826588
-0.0975764
-0.111755
-0.125172
-0.138059
-0.150242
-0.161578
-0.171764
-0.181229
-0.189971
-0.197934
-0.205082
-0.211307
-0.216903
-0.221886
-0.226249
-0.230002
-0.233141
-0.235793
-0.23797
-0.239632
-0.240975
0.0865097
0.0831813
0.0799925
0.0762914
0.0721045
0.0672944
0.0614487
0.055017
0.0473217
0.0386517
0.0291031
0.0183744
0.00663529
-0.00563296
-0.0187231
-0.0325063
-0.0463263
-0.060228
-0.0742356
-0.0880998
-0.101391
-0.114063
-0.126312
-0.137964
-0.148886
-0.158772
-0.168008
-0.17658
-0.184424
-0.191505
-0.197707
-0.203303
-0.208304
-0.212701
-0.216501
-0.219695
-0.222404
-0.224639
-0.226363
-0.227781
0.0794152
0.0762241
0.0731644
0.0696458
0.0657041
0.0612214
0.0558354
0.049953
0.0429701
0.0351397
0.0265433
0.0169056
0.00635382
-0.00469663
-0.0165109
-0.0290024
-0.0416009
-0.0543437
-0.0672501
-0.0801061
-0.0925222
-0.104439
-0.116022
-0.127101
-0.137559
-0.147087
-0.156032
-0.16437
-0.172033
-0.178988
-0.18511
-0.190653
-0.195623
-0.200008
-0.203812
-0.207023
-0.209754
-0.212016
-0.213773
-0.215238
0.0731042
0.0700386
0.0670955
0.0637372
0.0600056
0.0557988
0.050797
0.0453695
0.0389761
0.0318417
0.0240362
0.0153099
0.00576002
-0.0042521
-0.0149658
-0.0263259
-0.0378357
-0.049528
-0.0614197
-0.0733277
-0.084902
-0.0960746
-0.106988
-0.117478
-0.127441
-0.136571
-0.14518
-0.153238
-0.160673
-0.167453
-0.173449
-0.178896
-0.183792
-0.188125
-0.191896
-0.195091
-0.197813
-0.200074
-0.201839
-0.203327
0.0674641
0.0645148
0.0616788
0.0584645
0.0549171
0.0509479
0.0462735
0.0412302
0.0353329
0.0287841
0.0216445
0.0136881
0.00499068
-0.00413105
-0.013893
-0.024262
-0.0348041
-0.0455497
-0.0565149
-0.067543
-0.0783198
-0.0887745
-0.0990299
-0.10893
-0.118382
-0.127092
-0.135336
-0.143081
-0.150253
-0.156821
-0.162655
-0.167968
-0.172757
-0.177004
-0.180712
-0.183862
-0.186549
-0.188784
-0.190535
-0.192023
0.0624028
0.0595623
0.0568262
0.0537432
0.0503604
0.0465998
0.0422096
0.0374963
0.0320232
0.0259741
0.019402
0.0121029
0.00413751
-0.00421521
-0.0131501
-0.0226493
-0.0323323
-0.0422273
-0.0523504
-0.0625678
-0.0725974
-0.0823682
-0.0919877
-0.101308
-0.110249
-0.118527
-0.12639
-0.133801
-0.140685
-0.147014
-0.152657
-0.157809
-0.162462
-0.166598
-0.170217
-0.173297
-0.175927
-0.178116
-0.179834
-0.181302
0.0578443
0.0551065
0.0524643
0.0495028
0.0462693
0.0426949
0.038555
0.0341294
0.0290244
0.0234072
0.0173247
0.0105929
0.00326159
-0.00442222
-0.0126344
-0.0213674
-0.0302868
-0.0394188
-0.0487783
-0.0582517
-0.067586
-0.0767121
-0.0857244
-0.0944845
-0.102921
-0.110767
-0.118241
-0.125306
-0.131888
-0.137959
-0.14339
-0.14836
-0.152856
-0.156859
-0.160367
-0.163359
-0.165914
-0.16804
-0.169708
-0.171141
0.053725
0.0510849
0.048532
0.0456837
0.0425873
0.0391815
0.035265
0.0310938
0.0263119
0.0210725
0.0154172
0.00917985
0.00240237
-0.00469554
-0.0122724
-0.0203277
-0.0285665
-0.0370134
-0.0456817
-0.0544737
-0.0631643
-0.0716869
-0.0801241
-0.0883471
-0.0962938
-0.103712
-0.110799
-0.117513
-0.123784
-0.129585
-0.134791
-0.139562
-0.143885
-0.147739
-0.151122
-0.154009
-0.156474
-0.158523
-0.160128
-0.161513
0.0499911
0.0474443
0.044977
0.0422355
0.0392662
0.0360145
0.0322997
0.0283561
0.0238611
0.0189557
0.0136768
0.00787455
0.00158485
-0.00499616
-0.0120115
-0.0194648
-0.0270947
-0.0349246
-0.0429666
-0.0511361
-0.059232
-0.0671915
-0.0750874
-0.0828
-0.0902752
-0.0972772
-0.103981
-0.110347
-0.116305
-0.121829
-0.126801
-0.131364
-0.135502
-0.139196
-0.14244
-0.145211
-0.147575
-0.149536
-0.151068
-0.152393
0.0465974
0.04414
0.0417549
0.0391147
0.0362641
0.0331546
0.029624
0.025886
0.0216484
0.0170411
0.0120972
0.0066812
0.000824578
-0.005297
-0.0118129
-0.018729
-0.0258123
-0.0330849
-0.0405582
-0.0481591
-0.0557068
-0.0631426
-0.0705312
-0.0777618
-0.0847868
-0.0913866
-0.0977177
-0.103739
-0.109386
-0.114634
-0.119366
-0.123714
-0.127661
-0.131186
-0.134284
-0.13693
-0.139183
-0.141048
-0.1425
-0.143757
0.0435049
0.0411336
0.0388278
0.0362841
0.0335453
0.0305683
0.0272068
0.0236565
0.0196521
0.0153133
0.0106698
0.00559949
0.000130211
-0.00558028
-0.0116491
-0.0180833
-0.0246742
-0.0314426
-0.038399
-0.0454794
-0.0525223
-0.0594723
-0.0663868
-0.0731637
-0.0797612
-0.0859752
-0.0919453
-0.0976319
-0.102973
-0.107945
-0.112437
-0.116568
-0.12032
-0.123671
-0.126617
-0.129131
-0.131269
-0.133031
-0.134397
-0.13558
0.0406806
0.0383923
0.0361632
0.0337118
0.0310791
0.0282261
0.0250212
0.0216435
0.017852
0.0137567
0.00938483
0.00462594
-0.000494763
-0.00583532
-0.0115018
-0.0175014
-0.0236471
-0.0299579
-0.0364432
-0.0430472
-0.0496246
-0.0561241
-0.0625962
-0.0689473
-0.0751403
-0.080986
-0.0866092
-0.0919715
-0.0970138
-0.101715
-0.105969
-0.109883
-0.113439
-0.116614
-0.119404
-0.121784
-0.123801
-0.125459
-0.126734
-0.127839
0.0380956
0.0358875
0.0337328
0.0313701
0.0288382
0.0261021
0.023043
0.019825
0.0162289
0.0123562
0.00823144
0.00375495
-0.00105014
-0.00605578
-0.011358
-0.016964
-0.0227054
-0.0285995
-0.0346545
-0.0408215
-0.0469697
-0.0530513
-0.0591112
-0.0650632
-0.0708744
-0.07637
-0.0816615
-0.0867118
-0.0914652
-0.095902
-0.0999224
-0.103622
-0.106982
-0.109981
-0.112615
-0.114858
-0.116754
-0.118304
-0.119488
-0.120511
0.0357252
0.0335946
0.0315121
0.0292347
0.026799
0.0241735
0.021251
0.0181816
0.0147659
0.0110977
0.00719916
0.00298024
-0.00153753
-0.00623826
-0.011209
-0.0164569
-0.0218297
-0.0273431
-0.0330043
-0.0387696
-0.0445214
-0.0502153
-0.0558912
-0.0614696
-0.0669214
-0.0720852
-0.0770606
-0.0818121
-0.0862873
-0.090468
-0.0942599
-0.0977489
-0.100916
-0.103742
-0.10622
-0.108327
-0.110101
-0.111544
-0.112635
-0.113576
0.0335475
0.0314921
0.0294797
0.0272846
0.0249409
0.0224203
0.0196262
0.0166958
0.0134477
0.00996846
0.00627814
0.00229549
-0.00195939
-0.00638137
-0.0110492
-0.0159696
-0.0210051
-0.0261698
-0.0314694
-0.0368649
-0.0422502
-0.0475843
-0.0529024
-0.0581314
-0.0632453
-0.0680954
-0.0727705
-0.0772368
-0.0814455
-0.0853792
-0.0889495
-0.0922336
-0.095213
-0.0978678
-0.100193
-0.102165
-0.103819
-0.105154
-0.106153
-0.107011
0.0315435
0.0295609
0.0276168
0.025501
0.0232456
0.0208251
0.0181522
0.0153523
0.0122605
0.00895667
0.00545901
0.00169422
-0.00231893
-0.00648504
-0.0108751
-0.0154952
-0.0202208
-0.0250646
-0.0300314
-0.0350858
-0.0401319
-0.0451317
-0.0501165
-0.0550188
-0.0598154
-0.0643692
-0.0687598
-0.0729551
-0.076909
-0.0806055
-0.0839621
-0.0870477
-0.0898443
-0.0923328
-0.0945078
-0.0963474
-0.0978829
-0.0991131
-0.100022
-0.100799
0.0296964
0.0277844
0.0259067
0.0238677
0.0216971
0.0193722
0.016814
0.0141373
0.0111919
0.00805158
0.00473282
0.00116964
-0.00262027
-0.00655031
-0.0106847
-0.0150284
-0.0194683
-0.0240161
-0.0286757
-0.0334149
-0.0381466
-0.0428357
-0.0475097
-0.0521067
-0.0566053
-0.06088
-0.0650015
-0.0689396
-0.0726507
-0.0761205
-0.0792716
-0.0821658
-0.0847859
-0.0871132
-0.0891426
-0.0908534
-0.0922735
-0.0934014
-0.0942221
-0.0949189
0.0279913
0.0261478
0.0243348
0.02237
0.0202811
0.0180478
0.0155985
0.0130382
0.0102303
0.00724312
0.00409125
0.000715374
-0.00286768
-0.00657909
-0.0104769
-0.0145653
-0.0187414
-0.0230156
-0.027391
-0.0318383
-0.0362781
-0.0406781
-0.0450623
-0.0493736
-0.053593
-0.0576045
-0.061472
-0.0651662
-0.0686468
-0.0719002
-0.0748546
-0.0775652
-0.0800152
-0.0821873
-0.0840761
-0.0856623
-0.0869707
-0.0879997
-0.0887351
-0.0893544
0.0264152
0.0246382
0.022888
0.0209951
0.0189851
0.0168396
0.0144939
0.012044
0.0093659
0.00652223
0.0035266
0.000325437
-0.00306531
-0.00657373
-0.0102521
-0.0141039
-0.0180356
-0.0220563
-0.0261683
-0.0303446
-0.0345131
-0.0386436
-0.0427574
-0.0468016
-0.0507589
-0.0545229
-0.0581504
-0.0616141
-0.064876
-0.0679236
-0.0706901
-0.0732251
-0.0755123
-0.0775352
-0.0792891
-0.0807552
-0.0819561
-0.0828898
-0.0835436
-0.0840879
0.0249563
0.0232438
0.021555
0.0197317
0.0177979
0.0157366
0.0134897
0.0111448
0.0085892
0.00588069
0.00303169
-6.05182e-06
-0.00321729
-0.00653655
-0.010011
-0.0136431
-0.0173477
-0.021133
-0.0250002
-0.0289246
-0.0328404
-0.0367196
-0.0405807
-0.0443751
-0.0480865
-0.0516176
-0.055019
-0.0582647
-0.0613196
-0.0641717
-0.0667594
-0.0691269
-0.0712587
-0.0731392
-0.0747636
-0.0761148
-0.0772127
-0.0780554
-0.078631
-0.0791037
0.0236042
0.0219545
0.0203253
0.0185696
0.0167092
0.014729
0.0125764
0.0103315
0.00789198
0.00531105
0.00260004
-0.000284421
-0.00332775
-0.00647026
-0.00975443
-0.0131819
-0.0166752
-0.0202413
-0.0238808
-0.0275707
-0.0312508
-0.0348953
-0.0385203
-0.0420807
-0.0455616
-0.0488736
-0.0520618
-0.0551019
-0.057961
-0.060628
-0.0630457
-0.0652538
-0.0672377
-0.0689824
-0.0704834
-0.0717249
-0.0727245
-0.0734806
-0.073982
-0.0743864
0.0223498
0.0207609
0.0191899
0.0174996
0.0157101
0.013808
0.0117457
0.00959629
0.00726688
0.00480657
0.00222571
-0.000514598
-0.00340048
-0.00637742
-0.00948366
-0.0127203
-0.0160165
-0.0193782
-0.0228052
-0.0262764
-0.0297366
-0.0331617
-0.0365657
-0.039907
-0.0431717
-0.0462777
-0.0492652
-0.0521114
-0.0547855
-0.0572772
-0.0595338
-0.0615907
-0.063434
-0.0650496
-0.0664334
-0.0675705
-0.0684768
-0.0691508
-0.069582
-0.0699216
0.0211845
0.0196548
0.0181404
0.0165135
0.0147927
0.0129658
0.01099
0.00893179
0.00670707
0.00436104
0.00190326
-0.000701198
-0.00343908
-0.00626059
-0.00920027
-0.0122585
-0.0153705
-0.0185411
-0.0217698
-0.0250366
-0.0282913
-0.0315111
-0.0347083
-0.0378442
-0.040906
-0.0438182
-0.0466168
-0.0492802
-0.0517798
-0.054106
-0.0562101
-0.0581237
-0.0598338
-0.061327
-0.0625996
-0.0636377
-0.0644557
-0.0650521
-0.0654173
-0.0656957
0.020101
0.0186287
0.0171694
0.015604
0.0139496
0.0121953
0.0103023
0.00833144
0.0062064
0.00396889
0.00162771
-0.000848503
-0.00344699
-0.00612248
-0.00890596
-0.0117971
-0.0147365
-0.0177283
-0.0207714
-0.0238471
-0.0269093
-0.029937
-0.0329403
-0.0358837
-0.038755
-0.0414851
-0.0441059
-0.0465972
-0.0489323
-0.0511022
-0.0530621
-0.0548402
-0.0564242
-0.0578017
-0.0589691
-0.0599137
-0.0606484
-0.0611717
-0.0614749
-0.0616958
0.0190926
0.017676
0.0162702
0.0147646
0.0131744
0.01149
0.00967661
0.0077894
0.00575944
0.00362511
0.00139448
-0.000960421
-0.00342753
-0.00596551
-0.0086022
-0.0113365
-0.0141141
-0.0169383
-0.0198075
-0.0227043
-0.0255862
-0.0284336
-0.0312552
-0.034018
-0.0367105
-0.0392693
-0.0417229
-0.044052
-0.0462322
-0.0482548
-0.0500786
-0.0517287
-0.0531937
-0.0544619
-0.0555301
-0.0563865
-0.0570427
-0.0574975
-0.0577428
-0.0579097
0.0181531
0.0167907
0.015437
0.0139891
0.0124611
0.0108443
0.00910728
0.00730038
0.00536119
0.00332503
0.00119945
-0.00104062
-0.0033837
-0.00579214
-0.0082906
-0.0108775
-0.0135031
-0.0161699
-0.0188761
-0.021605
-0.0243178
-0.0269962
-0.0296472
-0.0322405
-0.0347651
-0.0371629
-0.039459
-0.0416357
-0.04367
-0.0455538
-0.0472492
-0.0487787
-0.0501314
-0.0512968
-0.0522714
-0.0530449
-0.0536275
-0.0540181
-0.0542095
-0.0543262
0.017277
0.0159672
0.0146643
0.0132724
0.0118045
0.0102529
0.00858933
0.00685953
0.00500706
0.00306445
0.00103869
-0.0010926
-0.00331855
-0.00560456
-0.00797273
-0.0104209
-0.0129035
-0.0154225
-0.0179754
-0.0205468
-0.0231009
-0.0256204
-0.0281114
-0.0305454
-0.0329122
-0.0351587
-0.0373068
-0.03934
-0.041237
-0.0429902
-0.0445646
-0.0459804
-0.0472276
-0.0482961
-0.0491829
-0.0498785
-0.0503921
-0.050723
-0.0508644
-0.0509342
0.0164595
0.0152007
0.0139472
0.0126096
0.0111998
0.00971112
0.00811814
0.00646235
0.00469281
0.00283941
0.000908564
-0.00111961
-0.00323462
-0.00540489
-0.00764999
-0.00996745
-0.0123154
-0.0146951
-0.017104
-0.0195274
-0.0219323
-0.0243026
-0.0266431
-0.0289276
-0.0311462
-0.0332503
-0.0352592
-0.0371575
-0.0389253
-0.0405556
-0.0420163
-0.0433252
-0.044473
-0.0454505
-0.0462549
-0.0468776
-0.0473269
-0.0476022
-0.0476972
-0.0477238
0.0156958
0.0144866
0.0132811
0.0119961
0.0106427
0.0092147
0.0076895
0.00610475
0.00441456
0.00264625
0.000805792
-0.00112441
-0.0031343
-0.00519493
-0.00732377
-0.00951786
-0.0117388
-0.0139874
-0.0162608
-0.0185449
-0.0208095
-0.0230395
-0.0252385
-0.0273825
-0.0294619
-0.031432
-0.0333101
-0.0350815
-0.0367279
-0.0382426
-0.0395963
-0.0408047
-0.0418593
-0.0427514
-0.0434787
-0.0440332
-0.0444226
-0.0446463
-0.0446986
-0.0446853
0.0149819
0.0138208
0.012662
0.011428
0.010129
0.00875967
0.00729962
0.0057831
0.00416878
0.00248171
0.000727425
-0.0011096
-0.00301973
-0.0049765
-0.00699525
-0.00907285
-0.011174
-0.0132989
-0.0154445
-0.0175977
-0.0197302
-0.0218281
-0.0238942
-0.025906
-0.0278544
-0.0296986
-0.0314536
-0.0331058
-0.0346381
-0.0360442
-0.0372973
-0.0384115
-0.0393785
-0.0401907
-0.0408458
-0.0413368
-0.0416705
-0.0418465
-0.0418595
-0.0418094
0.014314
0.0131996
0.012086
0.0109015
0.00965524
0.00834246
0.00694504
0.00549407
0.00395234
0.00234289
0.000670824
-0.00107752
-0.00289291
-0.00475109
-0.00666567
-0.0086331
-0.010621
-0.0126292
-0.0146544
-0.0166841
-0.0186924
-0.0206659
-0.0226068
-0.0244943
-0.0263197
-0.0280454
-0.0296847
-0.0312248
-0.0326498
-0.033954
-0.0351127
-0.0361384
-0.0370236
-0.0377609
-0.0383487
-0.0387805
-0.0390625
-0.0391945
-0.0391716
-0.0390878
0.0136887
0.0126195
0.01155
0.0104133
0.00921799
0.00795982
0.00662266
0.00523465
0.00376246
0.00222717
0.000633604
-0.00103027
-0.00275562
-0.00452026
-0.00633601
-0.00819923
-0.0100801
-0.0119781
-0.0138896
-0.015803
-0.0176942
-0.0195506
-0.0213737
-0.0231443
-0.0248538
-0.0264681
-0.0279985
-0.0294333
-0.0307577
-0.0319662
-0.0330363
-0.0339791
-0.0347875
-0.0354551
-0.0359802
-0.0363569
-0.036591
-0.0366825
-0.0366268
-0.0365123
0.0131027
0.0120774
0.0110506
0.00996034
0.00881427
0.00760883
0.00632961
0.00500216
0.00359657
0.00213222
0.000613608
-0.000969785
-0.00260953
-0.00428522
-0.00600731
-0.00777184
-0.00955142
-0.0113452
-0.0131495
-0.0149532
-0.0167339
-0.01848
-0.0201922
-0.0218527
-0.0234533
-0.0249627
-0.0263909
-0.0277267
-0.0289566
-0.0300754
-0.0310624
-0.0319275
-0.0326643
-0.0332667
-0.0337333
-0.0340589
-0.0342488
-0.0343031
-0.0342176
-0.0340752
0.0125534
0.0115705
0.0105852
0.00953976
0.00844134
0.0072868
0.00606334
0.00479411
0.00345235
0.00205586
0.000608861
-0.000897807
-0.00245608
-0.00404727
-0.00568039
-0.00735144
-0.00903516
-0.0107304
-0.0124334
-0.0141335
-0.0158101
-0.0174521
-0.0190599
-0.0206167
-0.0221149
-0.0235256
-0.0248576
-0.0261006
-0.0272418
-0.0282764
-0.0291855
-0.029978
-0.0306478
-0.0311895
-0.0316017
-0.03188
-0.0320292
-0.0320494
-0.0319369
-0.0317692
0.012038
0.0110962
0.010151
0.00914904
0.00809667
0.00699127
0.00582146
0.00460822
0.00332766
0.00199611
0.000617561
-0.000815929
-0.00229665
-0.00380743
-0.00535612
-0.00693852
-0.00853145
-0.0101335
-0.0117407
-0.013343
-0.0149213
-0.0164652
-0.0179746
-0.0194338
-0.0208356
-0.0221536
-0.0233952
-0.0245509
-0.0256089
-0.0265646
-0.0274008
-0.0281253
-0.0287326
-0.0292177
-0.0295795
-0.029814
-0.0299257
-0.0299148
-0.0297779
-0.0295876
0.0115541
0.010652
0.00974582
0.00878584
0.00777798
0.00671998
0.0056018
0.00444242
0.00322054
0.00195116
0.000638064
-0.000725601
-0.00213246
-0.00356676
-0.00503519
-0.00653354
-0.00804042
-0.00955415
-0.0110709
-0.0125808
-0.0140663
-0.0155177
-0.0169343
-0.0183017
-0.0196127
-0.0208434
-0.0220001
-0.0230739
-0.0240539
-0.0249357
-0.0257036
-0.0263646
-0.0269135
-0.027346
-0.027661
-0.0278551
-0.0279323
-0.0278932
-0.0277344
-0.0275237
0.0110995
0.0102359
0.00936739
0.00844803
0.00748317
0.00647092
0.0054024
0.00429482
0.00312923
0.00191938
0.000668874
-0.000628148
-0.00196464
-0.00332611
-0.0047183
-0.00613688
-0.00756218
-0.00899234
-0.0104234
-0.0118461
-0.013244
-0.014608
-0.0159372
-0.017218
-0.0184437
-0.0195923
-0.0206692
-0.0216661
-0.0225729
-0.0233854
-0.0240895
-0.0246911
-0.0251857
-0.0255693
-0.0258409
-0.0259977
-0.0260434
-0.0259785
-0.0258001
-0.0255715
0.0106722
0.00984569
0.00901376
0.00813366
0.00721033
0.0062422
0.00522146
0.00416371
0.00305209
0.00189926
0.000708623
-0.000524775
-0.0017942
-0.00308635
-0.00440601
-0.0057489
-0.00709684
-0.00844779
-0.00979778
-0.011138
-0.0124532
-0.0137348
-0.0149815
-0.0161808
-0.0173262
-0.0183975
-0.0193995
-0.0203241
-0.0211623
-0.0219101
-0.0225544
-0.0231006
-0.0235446
-0.0238827
-0.0241143
-0.0242367
-0.0242535
-0.0241654
-0.0239695
-0.0237249
0.0102702
0.00947964
0.00868308
0.0078409
0.0069577
0.00603212
0.00505735
0.0040475
0.00298765
0.00188942
0.000756065
-0.000416579
-0.00162208
-0.00284816
-0.00409889
-0.00536989
-0.00664444
-0.00792034
-0.00919356
-0.0104557
-0.0116928
-0.0128966
-0.0140656
-0.0151881
-0.0162579
-0.0172566
-0.0181881
-0.019045
-0.0198189
-0.020506
-0.0210945
-0.021589
-0.0219859
-0.0222819
-0.0224764
-0.0225672
-0.0225577
-0.0224485
-0.0222371
-0.0219785
0.00989193
0.00913601
0.00837365
0.00756813
0.0067236
0.00583907
0.00490851
0.00394474
0.00293455
0.00188861
0.000810062
-0.000304554
-0.00144909
-0.00261227
-0.00379738
-0.00500012
-0.00620503
-0.00740975
-0.0086103
-0.00979873
-0.010962
-0.0120923
-0.0131879
-0.0142381
-0.0152368
-0.0161672
-0.0170325
-0.0178259
-0.0185395
-0.0191698
-0.0197061
-0.0201524
-0.0205056
-0.0207624
-0.0209227
-0.0209846
-0.0209509
-0.0208228
-0.0205977
-0.020327
0.00953564
0.0088132
0.00808393
0.00731374
0.0065066
0.0056616
0.00477357
0.00385409
0.00289153
0.00189569
0.000869584
-0.000189605
-0.00127601
-0.00237923
-0.00350194
-0.00463981
-0.00577861
-0.00691587
-0.00804758
-0.00916624
-0.0102597
-0.0113207
-0.0123472
-0.0133291
-0.0142609
-0.015127
-0.0159302
-0.016664
-0.0173211
-0.0178982
-0.0183858
-0.0187872
-0.0190997
-0.0193204
-0.0194491
-0.0194843
-0.0194288
-0.0192837
-0.0190466
-0.0187652
0.00919993
0.00850979
0.00781245
0.00707643
0.00630526
0.00549839
0.00465124
0.00377434
0.00285745
0.00190962
0.0009337
-7.25451e-05
-0.00110351
-0.0021496
-0.0032129
-0.00428916
-0.0053652
-0.00643845
-0.00750498
-0.00855764
-0.00958514
-0.0105806
-0.0115419
-0.0124597
-0.0133284
-0.0141341
-0.0148789
-0.0155567
-0.0161609
-0.0166884
-0.0171304
-0.01749
-0.0177647
-0.0179518
-0.0180515
-0.0180623
-0.017987
-0.0178266
-0.017579
-0.0172886
0.00888339
0.00822441
0.00755794
0.00685481
0.0061184
0.00534821
0.00454037
0.00370438
0.00283129
0.00192943
0.00100155
4.58827e-05
-0.000932207
-0.00192384
-0.00293062
-0.00394832
-0.00496477
-0.0059773
-0.00698208
-0.00797229
-0.00893745
-0.00987104
-0.0107708
-0.0116281
-0.0124376
-0.0131864
-0.0138763
-0.0145017
-0.0150563
-0.0155373
-0.0159368
-0.0162576
-0.0164971
-0.0166533
-0.0167261
-0.0167147
-0.0166213
-0.0164473
-0.0161906
-0.0158924
0.00858478
0.00795582
0.00731915
0.00664779
0.0059448
0.00520996
0.00443988
0.0036432
0.00281211
0.00195428
0.00107235
0.000164998
-0.000762652
-0.0017024
-0.00265536
-0.00361742
-0.00457726
-0.0055322
-0.0064785
-0.00740963
-0.00831584
-0.00919098
-0.0100327
-0.010833
-0.0115866
-0.0122821
-0.0129204
-0.0134966
-0.0140048
-0.0144424
-0.0148023
-0.0150868
-0.0152938
-0.0154213
-0.0154695
-0.0154376
-0.0153279
-0.0151418
-0.0148772
-0.0145725
0.00830288
0.00770287
0.00709494
0.00645415
0.00578343
0.00508258
0.00434879
0.00358987
0.00279903
0.00198336
0.00114539
0.00028419
-0.000595349
-0.00148562
-0.00238739
-0.00329653
-0.00420261
-0.00510293
-0.00599381
-0.00686904
-0.00771953
-0.00853944
-0.00932644
-0.0100729
-0.0107741
-0.0114193
-0.0120093
-0.0125393
-0.0130041
-0.0134011
-0.013724
-0.0139748
-0.0141515
-0.0142526
-0.0142781
-0.0142276
-0.0141032
-0.0139062
-0.0136349
-0.0133248
0.00803662
0.00746446
0.00688425
0.00627295
0.00563323
0.00496512
0.00426617
0.00354352
0.00279127
0.00201596
0.00122004
0.000402912
-0.000430733
-0.00127387
-0.00212687
-0.00298571
-0.00384074
-0.00468925
-0.00552762
-0.00634995
-0.00714775
-0.00791551
-0.00865084
-0.00934668
-0.00999846
-0.0105964
-0.0111409
-0.0116277
-0.0120519
-0.0124111
-0.0126994
-0.0129189
-0.0130676
-0.0131442
-0.0131489
-0.0130813
-0.0129436
-0.0127371
-0.0124599
-0.0121454
0.00778494
0.00723959
0.0066861
0.00610316
0.00549334
0.00485668
0.0041912
0.00350336
0.00278809
0.00205141
0.0012957
0.000520676
-0.000269204
-0.00106739
-0.00187397
-0.002685
-0.00349156
-0.00429093
-0.00507954
-0.0058518
-0.00659977
-0.00731827
-0.00800487
-0.008653
-0.00925829
-0.00981177
-0.0103137
-0.01076
-0.0111461
-0.0114699
-0.0117261
-0.0119164
-0.0120391
-0.0120931
-0.0120787
-0.0119957
-0.011846
-0.0116309
-0.011349
-0.0110307
0.00754693
0.00702735
0.00649957
0.00594397
0.00536285
0.00475646
0.00412311
0.00346867
0.00278882
0.00208913
0.00137188
0.000637048
-0.000111091
-0.000866452
-0.00162883
-0.00239443
-0.00315497
-0.00390771
-0.00464919
-0.00537406
-0.00607493
-0.00674689
-0.00738752
-0.00799069
-0.00855224
-0.00906395
-0.00952587
-0.00993412
-0.0102847
-0.0105754
-0.0108017
-0.0109649
-0.0110636
-0.0110967
-0.0110648
-0.0109676
-0.0108071
-0.0105846
-0.0102986
-0.00997749
0.00732167
0.00682688
0.00632386
0.0057945
0.00524103
0.0046637
0.00406117
0.00343879
0.00279287
0.00212856
0.00144808
0.000751636
4.33023e-05
-0.00067124
-0.00139157
-0.002114
-0.00283083
-0.00353934
-0.00423616
-0.00491618
-0.00557251
-0.00620053
-0.00679781
-0.00735862
-0.00787902
-0.00835146
-0.00877579
-0.0091485
-0.00946574
-0.00972566
-0.00992405
-0.010062
-0.0101385
-0.0101525
-0.0101045
-0.00999445
-0.00982425
-0.00959508
-0.00930578
-0.00898243
0.00710836
0.00663735
0.00615815
0.00565406
0.00512711
0.00457771
0.00400475
0.0034131
0.00279967
0.00216921
0.00152389
0.000864086
0.000193713
-0.000481952
-0.00116227
-0.00184367
-0.002519
-0.00318558
-0.00384007
-0.00447764
-0.00509189
-0.00567841
-0.00623479
-0.00675571
-0.00723738
-0.0076729
-0.008062
-0.00840133
-0.00868751
-0.00891868
-0.00909104
-0.00920567
-0.00926156
-0.00925787
-0.00919514
-0.00907346
-0.00889452
-0.00865971
-0.00836757
-0.00804263
0.00690616
0.00645803
0.00600173
0.00552188
0.00502046
0.00449784
0.00395323
0.00339105
0.00280871
0.00221063
0.0015989
0.000974083
0.000339897
-0.000298733
-0.000940998
-0.00158341
-0.00221934
-0.00284612
-0.00346053
-0.00405795
-0.0046324
-0.00517975
-0.00569757
-0.00618091
-0.00662614
-0.00702698
-0.007383
-0.00769118
-0.00794824
-0.00815257
-0.00830079
-0.00839376
-0.00843055
-0.00841066
-0.00833445
-0.00820219
-0.00801551
-0.00777562
-0.00748143
-0.00715533
0.0067144
0.0062882
0.0058539
0.00539736
0.00492039
0.00442351
0.00390606
0.00337212
0.00281953
0.0022524
0.00167277
0.00108134
0.000481643
-0.000121717
-0.000727772
-0.00133314
-0.00193167
-0.00252072
-0.00309715
-0.00365658
-0.00419346
-0.0047038
-0.00518527
-0.0056332
-0.00604418
-0.00641244
-0.00673749
-0.0070164
-0.00724634
-0.00742568
-0.00755137
-0.00762424
-0.00764353
-0.00760863
-0.00752015
-0.00737833
-0.00718469
-0.0069406
-0.00664467
-0.00631803
0.00653234
0.00612719
0.00571404
0.00527984
0.00482639
0.00435416
0.00386274
0.00335583
0.00283171
0.00229417
0.00174519
0.0011856
0.00061877
4.89978e-05
-0.000522618
-0.0010928
-0.00165582
-0.00220909
-0.00274957
-0.00327308
-0.00377442
-0.00424985
-0.00469704
-0.00511165
-0.00549042
-0.0058281
-0.00612406
-0.00637571
-0.00658023
-0.00673627
-0.0068411
-0.00689536
-0.00689837
-0.00684982
-0.00675011
-0.00659968
-0.00639996
-0.00615212
-0.00585517
-0.00552833
0.00635939
0.0059744
0.00558153
0.0051688
0.00473785
0.00428927
0.00382278
0.00334177
0.00284486
0.00233559
0.00181587
0.00128665
0.000751126
0.000213329
-0.000325534
-0.000862295
-0.00139163
-0.00191099
-0.00241741
-0.00290695
-0.00337473
-0.00381721
-0.00423209
-0.00461533
-0.00496384
-0.00527281
-0.00554157
-0.00576759
-0.00594848
-0.00608285
-0.00616823
-0.00620526
-0.00619341
-0.00613222
-0.00602237
-0.0058642
-0.00565906
-0.00540831
-0.00511055
-0.00478412
0.00619489
0.00582923
0.00545582
0.00506365
0.00465431
0.00422839
0.00378575
0.00332952
0.00285862
0.00237635
0.00188457
0.00138429
0.000878584
0.000371219
-0.000136506
-0.000641537
-0.00113891
-0.00162611
-0.00210032
-0.00255774
-0.00299381
-0.00340521
-0.00378965
-0.00414338
-0.00446346
-0.00474549
-0.00498872
-0.0051909
-0.00534966
-0.00546384
-0.00553126
-0.00555238
-0.0055267
-0.00545411
-0.00533501
-0.00516994
-0.00496019
-0.00470688
-0.00440904
-0.00408337
0.00603832
0.00569116
0.0053364
0.00496395
0.00457528
0.00417106
0.00375125
0.00331872
0.00287268