/*--------------------------------*- C++ -*----------------------------------*\
| =========                 |                                                 |
| \\      /  F ield         | OpenFOAM: The Open Source CFD Toolbox           |
|  \\    /   O peration     | Version:  3.0.1                                 |
|   \\  /    A nd           | Web:      www.OpenFOAM.org                      |
|    \\/     M anipulation  |                                                 |
\*---------------------------------------------------------------------------*/
FoamFile
{
    version     2.0;
    format      ascii;
    class       surfaceScalarField;
    location    "500";
    object      phi;
}
// * * * * * * * * * * * * * * * * * * * * * * * * * * * * * * * * * * * * * //

dimensions      [0 3 -1 0 0 0 0];

internalField   nonuniform List<scalar> 
115520
(
0.00688724
-0.00255385
-0.00433304
0.00878458
-0.00189716
0.00989945
-0.00111458
0.0104837
-0.00058409
0.0107575
-0.000273604
0.0108389
-8.13308e-05
0.0108322
6.81573e-06
0.0107862
4.60432e-05
0.010749
3.7296e-05
0.0107491
-7.57721e-08
0.0107748
-2.5668e-05
0.0108318
-5.6934e-05
0.0109343
-0.000102411
0.011061
-0.000126745
0.0112036
-0.000142546
0.0113659
-0.000162295
0.0115469
-0.000181008
0.0117355
-0.000188554
0.011926
-0.00019055
0.0121191
-0.000193039
0.0123186
-0.000199537
0.012517
-0.000198386
0.0127104
-0.000193373
0.0128957
-0.000185346
0.0130787
-0.000182913
0.0132567
-0.000178013
0.0134271
-0.000170384
0.013588
-0.000160927
0.0137378
-0.000149818
0.0138806
-0.00014283
0.0140148
-0.000134184
0.0141392
-0.000124383
0.0142535
-0.000114302
0.0143579
-0.000104412
0.014441
-8.30804e-05
0.0144755
-3.44141e-05
0.0144862
-1.07336e-05
0.0144977
-1.15212e-05
0.0145396
-4.18428e-05
-0.000100016
0.0146396
0.0038361
-0.00387566
-0.00251424
0.00505602
-0.00311699
0.00617803
-0.0022365
0.00713335
-0.00153933
0.0079355
-0.00107566
0.00859154
-0.000737308
0.00913231
-0.00053388
0.00957262
-0.000394215
0.00994274
-0.000332779
0.0102655
-0.000322781
0.0105472
-0.000307314
0.0108111
-0.000320856
0.011077
-0.000368297
0.0113314
-0.000381095
0.0115773
-0.000388373
0.0118313
-0.000416326
0.0120881
-0.000437756
0.0123408
-0.000441232
0.0125884
-0.000438204
0.0128378
-0.000442382
0.0130885
-0.00045031
0.0133332
-0.000443032
0.0135706
-0.000430768
0.013799
-0.000413739
0.0140275
-0.00041145
0.0142476
-0.000398117
0.0144582
-0.000380945
0.0146581
-0.000360809
0.0148461
-0.000337815
0.0150287
-0.000325454
0.0151999
-0.000305341
0.0153588
-0.000283347
0.0155043
-0.000259813
0.0156347
-0.000234722
0.0157503
-0.000198707
0.0158483
-0.000132392
0.0159349
-9.73723e-05
0.0160198
-9.63871e-05
0.0161089
-0.000130935
-0.000202297
0.0162112
0.00330098
-0.00497598
-0.00220066
0.00438255
-0.00419855
0.00544974
-0.00330368
0.00642657
-0.00251614
0.00731681
-0.00196587
0.00810738
-0.00152785
0.00876688
-0.00119335
0.00935456
-0.000981868
0.00984931
-0.000827511
0.0102765
-0.000749988
0.0106591
-0.00068987
0.011003
-0.000664676
0.0113196
-0.000684884
0.0116206
-0.000682101
0.0119104
-0.000678156
0.0121937
-0.000699645
0.0124721
-0.000716158
0.0127458
-0.000714859
0.0130152
-0.000707633
0.0132818
-0.000708933
0.0135446
-0.000713127
0.0138016
-0.000700027
0.0140524
-0.0006816
0.0142964
-0.000657699
0.0145345
-0.0006496
0.014764
-0.000627559
0.0149842
-0.00060115
0.0151948
-0.000571395
0.0153951
-0.000538165
0.0155857
-0.000516001
0.0157645
-0.000484181
0.0159312
-0.000450054
0.0160853
-0.000413912
0.0162262
-0.00037556
0.0163534
-0.000325913
0.016466
-0.000244952
0.0165643
-0.00019576
0.0166513
-0.000183321
0.0167276
-0.000207197
-0.000267802
0.0167931
0.00285279
-0.00588864
-0.00194015
0.00377391
-0.00511968
0.00471173
-0.00424151
0.00561992
-0.00342434
0.00649568
-0.00284163
0.00732141
-0.00235357
0.00805869
-0.00193063
0.00874382
-0.00166699
0.00934744
-0.00143113
0.00988563
-0.00128816
0.0103756
-0.00117986
0.0108174
-0.00110646
0.0112197
-0.00108711
0.0115956
-0.00105803
0.0119495
-0.001032
0.0122866
-0.00103674
0.0126112
-0.00104077
0.0129248
-0.0010285
0.0132286
-0.00101143
0.0135252
-0.00100547
0.013815
-0.00100293
0.0140964
-0.000981415
0.0143691
-0.000954327
0.0146327
-0.000921303
0.0148896
-0.000906509
0.0151367
-0.00087467
0.0153735
-0.000837875
0.0155993
-0.000797192
0.0158136
-0.000752473
0.016018
-0.000720434
0.0162101
-0.000676274
0.0163894
-0.00062936
0.0165554
-0.000579884
0.0167075
-0.000527654
0.0168464
-0.000464817
0.0169717
-0.000370287
0.0170834
-0.000307372
0.0171822
-0.000282135
0.0172685
-0.000293558
-0.000340628
0.0173414
0.00262383
-0.00672092
-0.00179157
0.00346459
-0.00596046
0.00432492
-0.00510186
0.00517622
-0.00427566
0.00601998
-0.0036854
0.00684309
-0.0031767
0.00760647
-0.00269401
0.00834109
-0.00240162
0.0090091
-0.00209914
0.00961891
-0.00189797
0.0101863
-0.00174723
0.010704
-0.00162412
0.0111741
-0.0015573
0.0116141
-0.00149798
0.012027
-0.00144492
0.0124137
-0.00142343
0.0127811
-0.00140812
0.0131331
-0.00138052
0.0134715
-0.00134981
0.0137976
-0.00133154
0.0141126
-0.00131794
0.014417
-0.00128579
0.0147109
-0.00124823
0.0149943
-0.0012047
0.0152679
-0.00118009
0.0155304
-0.00113723
0.0157816
-0.00108903
0.016021
-0.00103663
0.0162484
-0.000979825
0.016464
-0.00093602
0.0166665
-0.000878808
0.0168556
-0.000818458
0.0170309
-0.000755204
0.0171922
-0.000688871
0.0173395
-0.000612115
0.0174727
-0.000503536
0.0175914
-0.000426073
0.0176954
-0.0003861
0.0177841
-0.000382236
-0.000412948
0.0178564
0.00246121
-0.00750617
-0.00167598
0.0032543
-0.00675356
0.00406473
-0.00591231
0.00487389
-0.00508483
0.00568566
-0.00449719
0.00649186
-0.00398291
0.0072594
-0.00346155
0.00801403
-0.00315626
0.00871882
-0.00280393
0.00937682
-0.00255598
0.0100005
-0.00237087
0.0105783
-0.002202
0.0111079
-0.00208685
0.0116063
-0.00199634
0.012075
-0.00191369
0.0125118
-0.00186019
0.0129243
-0.00182061
0.0133176
-0.00177384
0.0136935
-0.00172566
0.0140525
-0.00169055
0.0143966
-0.00166208
0.0147276
-0.00161677
0.0150458
-0.00156642
0.0153514
-0.00151029
0.0156446
-0.00147327
0.0159253
-0.00141793
0.0161933
-0.00135704
0.0164483
-0.00129169
0.0166902
-0.00122163
0.0169188
-0.0011647
0.0171336
-0.00109358
0.0173341
-0.00101899
0.0175201
-0.000941174
0.0176912
-0.00086
0.0178477
-0.00076856
0.0179894
-0.00064525
0.0181158
-0.000552461
0.0182265
-0.000496743
0.0183208
-0.000476619
-0.000490322
0.0183982
0.00234908
-0.0082694
-0.00158586
0.00311816
-0.00752265
0.00390085
-0.00669501
0.00468404
-0.00586804
0.0054728
-0.00528595
0.00626261
-0.00477274
0.00702685
-0.0042258
0.00778784
-0.00391726
0.0085125
-0.0035286
0.00920115
-0.00324463
0.00986384
-0.00303356
0.0104871
-0.00282523
0.0110646
-0.00266442
0.0116126
-0.00254431
0.0121311
-0.00243215
0.0126145
-0.00234356
0.0130705
-0.00227661
0.0135047
-0.00220807
0.0139186
-0.00213957
0.0143118
-0.00208376
0.0146866
-0.00203688
0.0150459
-0.00197601
0.0153901
-0.00191064
0.0157197
-0.00183985
0.016034
-0.00178762
0.0163343
-0.0017182
0.0166204
-0.00164318
0.0168923
-0.00156356
0.0171497
-0.00147905
0.0173923
-0.00140734
0.0176201
-0.0013213
0.0178326
-0.00123153
0.0180297
-0.00113827
0.0182111
-0.00104142
0.0183768
-0.000934268
0.0185269
-0.000795306
0.0186607
-0.000686294
0.0187778
-0.000613809
0.0188775
-0.000576337
-0.000572042
0.0189592
0.00226657
-0.00902475
-0.00151123
0.00302619
-0.00828227
0.00379615
-0.00746498
0.00456644
-0.00663834
0.00534222
-0.00606174
0.00612119
-0.00555172
0.00688228
-0.0049869
0.00764498
-0.00467997
0.0083811
-0.00426472
0.00908983
-0.00395337
0.00977958
-0.00372332
0.0104365
-0.00348218
0.0110523
-0.00328021
0.0116413
-0.00313332
0.0122024
-0.00299327
0.0127278
-0.00286892
0.0132244
-0.00277321
0.0136978
-0.00268144
0.0141489
-0.00259071
0.0145765
-0.00251129
0.0149827
-0.00244313
0.0153713
-0.00236459
0.0157428
-0.00228212
0.0160976
-0.00219468
0.0164346
-0.0021246
0.0167558
-0.00203945
0.0170615
-0.00194882
0.0173514
-0.00185351
0.0176256
-0.00175321
0.0178833
-0.00166506
0.018125
-0.00156301
0.0183505
-0.00145701
0.0185596
-0.00134731
0.0187519
-0.00123379
0.0189275
-0.00110983
0.0190864
-0.000954222
0.0192282
-0.000828051
0.0193522
-0.000737837
0.0194579
-0.000682086
-0.000658963
0.0195449
0.00220427
-0.00978188
-0.00144714
0.00296436
-0.00904238
0.00373219
-0.00823281
0.0044996
-0.00740576
0.00527132
-0.00683348
0.00604626
-0.00632667
0.0068076
-0.00574825
0.00757243
-0.0054448
0.00831714
-0.00500944
0.00904072
-0.00467695
0.00975039
-0.004433
0.0104331
-0.00416486
0.0110795
-0.00392666
0.0117023
-0.00375615
0.0122997
-0.00359059
0.0128621
-0.00343134
0.0133956
-0.00330676
0.0139054
-0.00319124
0.014392
-0.00307727
0.014853
-0.00297227
0.0152905
-0.00288067
0.0157086
-0.0027827
0.0161079
-0.00268135
0.0164887
-0.00257548
0.0168492
-0.00248516
0.0171925
-0.00238267
0.0175186
-0.00227492
0.0178276
-0.00216251
0.0181194
-0.00204505
0.0183931
-0.00193879
0.0186497
-0.00181955
0.0188888
-0.00169619
0.0191105
-0.00156894
0.0193144
-0.0014377
0.0195003
-0.00129576
0.0196685
-0.00112244
0.0198186
-0.000978125
0.01995
-0.000869191
0.0200621
-0.000794192
-0.000751333
0.0201545
0.00215609
-0.0105475
-0.00139047
0.00292367
-0.00980997
0.00369694
-0.00900608
0.00446898
-0.00817781
0.0052439
-0.00760841
0.00602119
-0.00710396
0.00678719
-0.00651426
0.00755684
-0.00621446
0.00831047
-0.00576308
0.00904715
-0.00541363
0.00977329
-0.00515914
0.010477
-0.00486859
0.011149
-0.00459866
0.0118003
-0.00440743
0.0124285
-0.00421885
0.0130236
-0.00402644
0.0135906
-0.00387368
0.0141339
-0.00373454
0.0146536
-0.00359697
0.0151466
-0.00346527
0.0156146
-0.00334871
0.0160619
-0.00322998
0.0164888
-0.00310828
0.0168958
-0.00298245
0.0172804
-0.0028698
0.0176462
-0.00274847
0.0179935
-0.00262217
0.0183222
-0.00249125
0.0186324
-0.00235526
0.0189229
-0.00222925
0.0191949
-0.0020916
0.0194485
-0.00194971
0.0196833
-0.00180378
0.0198993
-0.00165368
0.0200961
-0.00149255
0.020274
-0.00130042
0.0204328
-0.00113692
0.0205719
-0.00100824
0.0206907
-0.000912992
-0.00084944
0.0207888
0.00211823
-0.0113266
-0.0013391
0.00289852
-0.0105903
0.00368289
-0.00979046
0.00446527
-0.00896019
0.00524916
-0.00839231
0.00603427
-0.00788908
0.00680931
-0.00728931
0.00758729
-0.00699245
0.00835171
-0.00652751
0.00910185
-0.00616378
0.00984343
-0.00590073
0.0105659
-0.0055911
0.0112605
-0.00529323
0.0119367
-0.00508364
0.0125921
-0.00487426
0.0132164
-0.00465073
0.0138136
-0.00447089
0.0143877
-0.00430864
0.0149383
-0.00414754
0.0154617
-0.00398862
0.0159591
-0.00384617
0.0164348
-0.00370568
0.016889
-0.00356248
0.017322
-0.00341542
0.0177309
-0.0032787
0.0181196
-0.00313715
0.0184884
-0.00299095
0.0188373
-0.00284017
0.0191664
-0.00268434
0.0194741
-0.00253701
0.0197623
-0.00237971
0.0200306
-0.00221809
0.0202791
-0.00205229
0.0205076
-0.00188218
0.0207157
-0.00170063
0.0209038
-0.00148853
0.0210717
-0.00130476
0.0212187
-0.00115528
0.0213445
-0.00103875
-0.000953488
0.0214485
0.00208814
-0.0121232
-0.0012916
0.0028852
-0.0113873
0.00368506
-0.0105903
0.00448227
-0.0097574
0.00527974
-0.00918979
0.00607727
-0.00868661
0.0068653
-0.00807734
0.00765518
-0.00778233
0.00843292
-0.00730524
0.00919796
-0.00692883
0.00995545
-0.00665823
0.0106962
-0.00633183
0.0114119
-0.00600897
0.0121111
-0.00578279
0.0127912
-0.00555441
0.0134423
-0.00530176
0.0140674
-0.00509605
0.0146701
-0.00491132
0.0152496
-0.00472702
0.0158017
-0.00454079
0.0163275
-0.00437192
0.0168308
-0.00420896
0.0173116
-0.00404335
0.0177702
-0.00387403
0.0182033
-0.0037118
0.018615
-0.0035488
0.0190055
-0.00338145
0.0193749
-0.00320954
0.0197231
-0.00303259
0.0200486
-0.00286247
0.0203532
-0.00268429
0.0206368
-0.00250173
0.0208994
-0.00231486
0.0211408
-0.00212357
0.0213605
-0.00192034
0.021559
-0.0016871
0.0217362
-0.00148195
0.0218915
-0.00131056
0.0220244
-0.00117166
-0.00106364
0.0221346
0.00206407
-0.0129404
-0.00124689
0.00288121
-0.0122045
0.0037001
-0.0114092
0.00451577
-0.0105731
0.00533062
-0.0100046
0.00614441
-0.0095004
0.00694892
-0.00888186
0.00775405
-0.00858747
0.00854777
-0.00809897
0.00932968
-0.00771074
0.0101044
-0.00743292
0.0108638
-0.00709124
0.0116004
-0.00674564
0.0123217
-0.00650406
0.0130253
-0.00625801
0.0137016
-0.00597803
0.0143531
-0.00574755
0.0149827
-0.00554097
0.0155896
-0.00533386
0.0161692
-0.00512045
0.0167222
-0.00492492
0.0172522
-0.00473896
0.0177592
-0.00455026
0.0182429
-0.00435782
0.0187001
-0.00416893
0.0191346
-0.00398336
0.0195469
-0.00379372
0.0199369
-0.0035995
0.0203045
-0.00340022
0.0206479
-0.00320591
0.0209693
-0.00300564
0.0212685
-0.00280093
0.0215454
-0.0025918
0.0218
-0.00237812
0.0220316
-0.00215196
0.0222409
-0.00189638
0.0224276
-0.0016687
0.0225913
-0.00147427
0.0227316
-0.00131188
-0.00117999
0.0228479
0.00204475
-0.0137809
-0.0012042
0.00288478
-0.0130445
0.00372568
-0.0122501
0.00456287
-0.0114103
0.00539827
-0.01084
0.00623159
-0.0103337
0.00705565
-0.00970592
0.00787907
-0.00941089
0.0086914
-0.00891131
0.00949232
-0.00851166
0.0102859
-0.00822653
0.0110651
-0.00787044
0.0118232
-0.00750369
0.0125666
-0.00724745
0.0132932
-0.00698461
0.0139939
-0.00667878
0.0146709
-0.0064245
0.0153265
-0.00619656
0.0159596
-0.00596699
0.0165658
-0.00572666
0.0171452
-0.00550437
0.0177013
-0.00529502
0.0182337
-0.00508264
0.0187422
-0.00486636
0.0192232
-0.00464987
0.0196805
-0.00444074
0.0201146
-0.00422774
0.0205252
-0.0040101
0.0209123
-0.00378733
0.0212739
-0.00356754
0.0216123
-0.00334399
0.0219273
-0.00311593
0.0222188
-0.00288334
0.0224868
-0.00264607
0.0227305
-0.00239572
0.0229507
-0.00211658
0.0231472
-0.0018652
0.0233195
-0.00164656
0.0234672
-0.00145953
-0.00130264
0.0235898
0.00202925
-0.0146472
-0.00116292
0.00289464
-0.0139099
0.00376015
-0.0131156
0.0046215
-0.0122716
0.00548021
-0.0116988
0.00633592
-0.0111894
0.00718223
-0.0105522
0.0080267
-0.0102554
0.00886013
-0.00974474
0.00968223
-0.00933377
0.0104966
-0.00904093
0.0112971
-0.00867089
0.0120775
-0.00828408
0.0128435
-0.00801353
0.0135933
-0.00773441
0.0143184
-0.00740387
0.0150204
-0.00712651
0.0157014
-0.00687758
0.0163603
-0.0066258
0.0169924
-0.00635881
0.0175978
-0.00610974
0.0181794
-0.00587663
0.0187368
-0.00564008
0.0192698
-0.00539932
0.0197744
-0.00515445
0.0202545
-0.00492085
0.0207102
-0.0046835
0.0211415
-0.00444138
0.0215482
-0.00419402
0.0219282
-0.00394753
0.0222837
-0.00369952
0.0226147
-0.00344693
0.022921
-0.00318966
0.0232026
-0.00292759
0.0234587
-0.00265182
0.02369
-0.00234788
0.0238964
-0.0020716
0.0240773
-0.00182755
0.0242325
-0.0016147
-0.00143162
0.0243615
0.00201689
-0.0155416
-0.00112256
0.00290987
-0.0148029
0.00380232
-0.0140081
0.0046902
-0.0131595
0.00557467
-0.0125832
0.00645529
-0.0120701
0.00732632
-0.0114233
0.00819435
-0.0111234
0.00905121
-0.0106016
0.00989661
-0.0101792
0.0107338
-0.00987808
0.0115571
-0.0094942
0.012361
-0.00908805
0.0131508
-0.00880323
0.0139244
-0.00850803
0.0146741
-0.00815361
0.0154013
-0.00785366
0.0161076
-0.00758393
0.0167919
-0.00731007
0.0174497
-0.00701662
0.0180807
-0.00674075
0.0186876
-0.00648354
0.0192699
-0.00622234
0.0198271
-0.00595651
0.0203552
-0.00568258
0.020858
-0.00542365
0.0213355
-0.005161
0.0217875
-0.00489338
0.0222138
-0.00462036
0.0226123
-0.00434602
0.0229852
-0.0040724
0.0233324
-0.00379409
0.0236536
-0.00351094
0.0239489
-0.00322286
0.0242175
-0.0029204
0.02446
-0.00259043
0.0246765
-0.00228801
0.0248662
-0.00201733
0.025029
-0.00177744
-0.00156696
0.0251643
0.00200711
-0.0164659
-0.00108273
0.00292978
-0.0157255
0.00385132
-0.0149296
0.0047679
-0.0140761
0.00568039
-0.0134957
0.00658823
-0.0129779
0.00748623
-0.0123213
0.00838013
-0.0120173
0.00926262
-0.0114841
0.0101334
-0.0110499
0.0109952
-0.0107399
0.0118431
-0.0103421
0.0126721
-0.00991702
0.0134866
-0.00961775
0.014285
-0.00930641
0.01506
-0.00892866
0.0158128
-0.00860641
0.0165447
-0.00831587
0.0172546
-0.00801992
0.0179381
-0.00770013
0.0185947
-0.00739737
0.0192268
-0.00711568
0.0198338
-0.00682936
0.0204152
-0.00653787
0.0209669
-0.00623428
0.0214924
-0.00594918
0.0219917
-0.0056603
0.0224645
-0.0053662
0.0229107
-0.00506648
0.0233278
-0.00476318
0.0237182
-0.00446279
0.0240817
-0.00415758
0.0244181
-0.00384736
0.0247273
-0.00353203
0.0250085
-0.00320163
0.0252624
-0.00284436
0.025489
-0.00251454
0.0256876
-0.00221598
0.025858
-0.0019478
-0.00170868
0.0259997
0.00199951
-0.0174223
-0.00104311
0.00295385
-0.0166799
0.00390651
-0.0158823
0.00485385
-0.0150234
0.00579644
-0.0144383
0.00673366
-0.0139151
0.00766073
-0.0132483
0.00858268
-0.0129392
0.00949289
-0.0123943
0.010391
-0.011948
0.0112794
-0.0116284
0.0121537
-0.0112164
0.0130091
-0.0107725
0.0138498
-0.0104584
0.0146741
-0.0101307
0.0154753
-0.00972991
0.0162544
-0.00938544
0.0170124
-0.00907394
0.0177483
-0.00875574
0.0184577
-0.0084096
0.0191402
-0.00807982
0.0197977
-0.00777322
0.0204296
-0.00746125
0.0210353
-0.00714351
0.0216107
-0.00680967
0.022159
-0.00649756
0.0226803
-0.00618155
0.0231741
-0.00585999
0.0236401
-0.00553252
0.0240761
-0.00519919
0.0244842
-0.00487088
0.0248642
-0.00453759
0.0252159
-0.00419907
0.0255392
-0.00385527
0.0258332
-0.00349567
0.0260987
-0.0031098
0.0263354
-0.0027513
0.026543
-0.00242358
0.026721
-0.00212581
-0.00185677
0.0268691
0.00199375
-0.0184127
-0.00100341
0.00298169
-0.0176678
0.00396743
-0.016868
0.00494749
-0.0160035
0.00592219
-0.015413
0.00689083
-0.0148838
0.00784899
-0.0142065
0.00880104
-0.0138913
0.00974098
-0.0133343
0.0106683
-0.0128754
0.0115853
-0.0125453
0.0124876
-0.0121187
0.0133712
-0.011656
0.0142394
-0.0113267
0.0150909
-0.0109821
0.0159194
-0.0105585
0.0167256
-0.0101917
0.0175106
-0.00985892
0.018273
-0.00951816
0.019009
-0.00914555
0.0197177
-0.00878852
0.0204009
-0.0084565
0.021058
-0.00811832
0.0216882
-0.00777368
0.0222875
-0.007409
0.022859
-0.00706904
0.0234024
-0.00672498
0.0239174
-0.00637497
0.0244036
-0.00601871
0.0248587
-0.00565429
0.0252847
-0.00529689
0.0256814
-0.00493432
0.0260486
-0.00456628
0.0263861
-0.00419274
0.0266931
-0.00380265
0.0269702
-0.00338689
0.0272173
-0.0029984
0.0274339
-0.00264019
0.0276196
-0.00231153
-0.00201124
0.0277741
0.00198956
-0.0194388
-0.000963403
0.00301298
-0.0186912
0.00403372
-0.0178888
0.00504843
-0.0170182
0.00605719
-0.0164218
0.00705921
-0.0158858
0.00805041
-0.0151977
0.00903456
-0.0148754
0.0100062
-0.0143059
0.0109647
-0.0138339
0.0119119
-0.0134926
0.0128441
-0.0130509
0.0137574
-0.0125693
0.0146547
-0.012224
0.0155347
-0.0118622
0.0163918
-0.0114155
0.0172263
-0.0110262
0.0180391
-0.0106717
0.0188289
-0.010308
0.019592
-0.00990866
0.0203275
-0.00952403
0.021037
-0.00916603
0.0217197
-0.008801
0.0223748
-0.00842876
0.0229984
-0.00803263
0.0235933
-0.00766396
0.0241593
-0.0072909
0.0246957
-0.00691143
0.0252023
-0.00652531
0.0256768
-0.00612875
0.026121
-0.00574109
0.0265347
-0.00534801
0.0269176
-0.0049492
0.0272695
-0.00454464
0.0275896
-0.00412277
0.0278785
-0.00367578
0.0281361
-0.00325594
0.0283618
-0.0028659
0.0285552
-0.00250498
-0.00217209
0.0287161
0.00198672
-0.0205027
-0.000922876
0.00304751
-0.019752
0.00410514
-0.0189464
0.00515639
-0.0180694
0.00620112
-0.0174665
0.00723847
-0.0169231
0.00826461
-0.0162238
0.0092828
-0.0158936
0.010288
-0.015311
0.0112795
-0.0148255
0.0122589
-0.014472
0.0132228
-0.0140147
0.0141673
-0.0135138
0.0150953
-0.013152
0.0160053
-0.0127722
0.0168922
-0.0123023
0.0177561
-0.0118901
0.0185978
-0.0115134
0.019416
-0.0111262
0.0202071
-0.0106998
0.0209701
-0.0102871
0.0217066
-0.00990246
0.0224154
-0.00950988
0.023096
-0.00910928
0.0237444
-0.00868105
0.0243632
-0.00828275
0.024952
-0.00787971
0.0255103
-0.00746975
0.0260377
-0.00705269
0.0265318
-0.0066229
0.0269945
-0.00620378
0.0274255
-0.00577895
0.0278244
-0.00534808
0.0281909
-0.0049112
0.0285244
-0.00445623
0.0288252
-0.00397664
0.0290934
-0.00352407
0.0293283
-0.0031008
0.0295295
-0.00270623
-0.00233934
0.0296968
0.00198507
-0.0216061
-0.000881643
0.0030851
-0.0208521
0.00418153
-0.0200428
0.0052712
-0.0191591
0.00635382
-0.0185491
0.00742841
-0.0179977
0.00849139
-0.0172868
0.00954553
-0.0169478
0.0105861
-0.0163516
0.0116125
-0.0158519
0.012626
-0.0154855
0.0136232
-0.0150119
0.0146007
-0.0144914
0.015561
-0.0141122
0.0165025
-0.0137138
0.0174206
-0.0132204
0.0183152
-0.0127847
0.0191869
-0.0123852
0.0200345
-0.0119738
0.0208546
-0.0115198
0.0216461
-0.0110786
0.0224102
-0.0106666
0.0231459
-0.0102457
0.0238525
-0.00981589
0.0245263
-0.00935484
0.0251695
-0.00892596
0.0257817
-0.00849192
0.0263624
-0.00805039
0.026911
-0.00760126
0.0274252
-0.00713715
0.0279067
-0.00668532
0.0283553
-0.00622747
0.0287704
-0.00576323
0.0291519
-0.00529268
0.0294989
-0.00480325
0.0298119
-0.00428965
0.0300908
-0.00380294
0.030335
-0.003345
0.0305441
-0.00291535
-0.00251301
0.0307178
0.00198445
-0.022751
-0.000839536
0.00312563
-0.0219932
0.00426276
-0.02118
0.00539277
-0.0202891
0.00651517
-0.0196715
0.00762893
-0.0191115
0.00873063
-0.0183885
0.00982264
-0.0180398
0.0109006
-0.0174295
0.0119637
-0.016915
0.0130129
-0.0165348
0.0140453
-0.0160443
0.0150575
-0.0155036
0.0160517
-0.0151063
0.0170264
-0.0146885
0.017977
-0.0141711
0.0189037
-0.0137114
0.0198068
-0.0132882
0.0206849
-0.0128519
0.021535
-0.0123698
0.0223559
-0.0118995
0.0231485
-0.0114592
0.023912
-0.0110092
0.0246455
-0.0105493
0.0253453
-0.0100547
0.0260135
-0.0095942
0.0266497
-0.00912809
0.0272532
-0.00865388
0.0278235
-0.00817151
0.0283582
-0.00767194
0.0288591
-0.00718613
0.0293255
-0.00669394
0.0297573
-0.00619498
0.030154
-0.00568938
0.0305148
-0.0051641
0.0308402
-0.00461506
0.03113
-0.00409272
0.0313836
-0.00359865
0.0316007
-0.00313243
-0.00269316
0.0317809
0.00198474
-0.0239394
-0.000796403
0.00316901
-0.0231775
0.00434877
-0.0223597
0.00552105
-0.0214614
0.00668516
-0.0208356
0.00784002
-0.0202663
0.00898237
-0.0195309
0.0101142
-0.0191716
0.0112313
-0.0185467
0.012333
-0.0180166
0.0134199
-0.0176217
0.0144893
-0.0171136
0.0155379
-0.0165523
0.0165676
-0.016136
0.017577
-0.0156979
0.0185618
-0.0151559
0.019522
-0.0146716
0.0204577
-0.0142239
0.0213677
-0.013762
0.0222489
-0.013251
0.0231002
-0.0127508
0.0239225
-0.0122815
0.0247146
-0.0118013
0.0254757
-0.0113104
0.0262023
-0.0107813
0.0268963
-0.0102882
0.0275571
-0.00978889
0.0281841
-0.00928082
0.0287766
-0.008764
0.0293324
-0.00822779
0.029853
-0.00770668
0.0303378
-0.00717879
0.0307865
-0.00664372
0.0311988
-0.00610163
0.0315737
-0.00553907
0.0319118
-0.00495309
0.0322127
-0.00439362
0.0324759
-0.0038619
0.0327011
-0.00335757
-0.00287984
0.0328878
0.00198585
-0.0251731
-0.000752101
0.00321517
-0.0244068
0.00443955
-0.0235841
0.00565605
-0.0226779
0.00686385
-0.0220434
0.00806176
-0.0214643
0.00924669
-0.0207158
0.0104202
-0.0203451
0.0115785
-0.0197049
0.0127206
-0.0191587
0.0138471
-0.0187482
0.0149552
-0.0182217
0.016042
-0.0176391
0.017109
-0.017203
0.0181547
-0.0167436
0.0191753
-0.0161764
0.0201704
-0.0156667
0.0211402
-0.0151937
0.0220834
-0.0147051
0.022997
-0.0141647
0.0238799
-0.0136337
0.0247328
-0.0131343
0.0255545
-0.012623
0.0263442
-0.0121001
0.0270986
-0.0115357
0.0278191
-0.0110087
0.0285053
-0.010475
0.0291563
-0.00993189
0.0297717
-0.00937935
0.0303492
-0.00880528
0.03089
-0.0082475
0.0313937
-0.00768248
0.0318598
-0.00710986
0.032288
-0.00652981
0.0326774
-0.00592848
0.0330284
-0.00530405
0.0333406
-0.00470588
0.0336136
-0.00413492
0.033847
-0.00359091
-0.00307314
0.0340403
0.00198768
-0.0264543
-0.000706497
0.00326409
-0.0256832
0.0045351
-0.0248551
0.00579784
-0.0239407
0.00705132
-0.0232969
0.00829429
-0.0227072
0.00952376
-0.0219453
0.010741
-0.0215623
0.0119423
-0.0209063
0.0131268
-0.0203432
0.0142947
-0.0199162
0.0154435
-0.0193705
0.0165703
-0.0187659
0.0176763
-0.0183089
0.0187601
-0.0178275
0.019818
-0.0172343
0.0208496
-0.0166983
0.021855
-0.016199
0.0228327
-0.0156829
0.02378
-0.015112
0.0246958
-0.0145495
0.0255804
-0.014019
0.0264329
-0.0134755
0.0272522
-0.0129194
0.0280351
-0.0123186
0.0287831
-0.0117567
0.0294954
-0.0111874
0.0301714
-0.0106078
0.0308103
-0.0100182
0.03141
-0.00940502
0.0319717
-0.00880915
0.0324947
-0.00820556
0.0329788
-0.00759387
0.0334233
-0.00697434
0.0338275
-0.00633272
0.0341917
-0.00566823
0.0345156
-0.00502975
0.0347986
-0.00441793
0.0350403
-0.00383261
-0.00327314
0.0352403
0.00199017
-0.027785
-0.000659466
0.00331575
-0.0270088
0.00463546
-0.0261748
0.0059465
-0.0252517
0.00724772
-0.0245981
0.00853778
-0.0239973
0.00981383
-0.0232213
0.0110768
-0.0228253
0.0123232
-0.0221527
0.013552
-0.021572
0.0147633
-0.0211275
0.0159546
-0.0205618
0.0171232
-0.0199345
0.01827
-0.0194557
0.0193936
-0.0189511
0.0204905
-0.0183313
0.0215603
-0.017768
0.0226027
-0.0172415
0.0236165
-0.0166967
0.0245989
-0.0160944
0.0255488
-0.0154994
0.0264665
-0.0149366
0.0273508
-0.0143598
0.0282008
-0.0137694
0.0290134
-0.0131312
0.0297897
-0.012533
0.030529
-0.0119267
0.0312307
-0.0113095
0.0318939
-0.0106814
0.0325166
-0.0100277
0.0330997
-0.00939227
0.0336427
-0.00874858
0.0341451
-0.00809629
0.0346065
-0.00743568
0.0350259
-0.00675218
0.0354037
-0.006046
0.0357395
-0.00536553
0.0360327
-0.00471117
0.036283
-0.00408284
-0.00347999
0.0364898
0.00199327
-0.0291674
-0.000610888
0.00337014
-0.0283857
0.0047407
-0.0275454
0.00610215
-0.0266132
0.00745322
-0.0259492
0.00879248
-0.0253365
0.0101172
-0.024546
0.0114279
-0.024136
0.0127214
-0.0234462
0.0139965
-0.0228471
0.0152532
-0.0223842
0.016489
-0.0217976
0.0177013
-0.0211467
0.0188907
-0.0206452
0.020056
-0.0201164
0.0211937
-0.0194689
0.0223032
-0.0188775
0.0233843
-0.0183226
0.0244356
-0.0177481
0.0254546
-0.0171134
0.02644
-0.0164848
0.027392
-0.0158886
0.0283095
-0.0152773
0.0291913
-0.0146512
0.0300345
-0.0139745
0.0308402
-0.0133387
0.0316076
-0.0126941
0.0323358
-0.0120377
0.0330241
-0.0113697
0.0336705
-0.0106741
0.0342758
-0.00999754
0.0348394
-0.00931218
0.0353607
-0.00861766
0.0358394
-0.00791433
0.0362745
-0.00718731
0.0366663
-0.00643774
0.0370143
-0.00571355
0.037318
-0.0050149
0.037577
-0.0043418
-0.00369381
0.0377908
0.00199692
-0.0306036
-0.000560646
0.00342731
-0.0298161
0.0048509
-0.028969
0.00626496
-0.0280272
0.00766804
-0.0273523
0.00905865
-0.0267272
0.0104341
-0.0259215
0.0117947
-0.0254966
0.0131374
-0.0247889
0.0144609
-0.0241705
0.015765
-0.0236883
0.0170473
-0.0230798
0.0183052
-0.0224047
0.0195392
-0.0218792
0.020748
-0.0213252
0.0219282
-0.0206491
0.0230792
-0.0200286
0.0242007
-0.019444
0.0252912
-0.0188386
0.0263483
-0.0181705
0.0273706
-0.0175071
0.0283583
-0.0168763
0.0293101
-0.0162291
0.030225
-0.0155661
0.0311001
-0.0148496
0.0319363
-0.0141748
0.0327326
-0.0134904
0.0334883
-0.0127934
0.0342026
-0.012084
0.0348735
-0.011345
0.0355017
-0.0106257
0.0360865
-0.00989702
0.0366275
-0.00915859
0.037124
-0.00841085
0.0375752
-0.00763858
0.0379814
-0.00684386
0.038342
-0.00607416
0.0386565
-0.00532941
0.0389244
-0.00460973
-0.00391477
0.0391454
0.00200109
-0.0320961
-0.000508629
0.00348727
-0.0313023
0.00496617
-0.0304479
0.00643509
-0.0294961
0.00789242
-0.0288096
0.00933661
-0.0281714
0.010765
-0.0273499
0.0121778
-0.0269094
0.0135718
-0.0261829
0.0149458
-0.0255445
0.0162993
-0.0250419
0.0176301
-0.0244107
0.0189357
-0.0237102
0.0202163
-0.0231598
0.0214704
-0.0225794
0.022695
-0.0218737
0.0238894
-0.0212229
0.0250529
-0.0206075
0.0261842
-0.01997
0.027281
-0.0192673
0.0283418
-0.018568
0.0293666
-0.0179011
0.0303542
-0.0172167
0.0313035
-0.0165153
0.0322116
-0.0157577
0.0330794
-0.0150425
0.0339058
-0.0143169
0.03469
-0.0135776
0.0354312
-0.0128252
0.0361274
-0.0120413
0.0367793
-0.0112776
0.0373861
-0.0105038
0.0379473
-0.00971975
0.0384622
-0.0089258
0.0389302
-0.00810652
0.0393511
-0.00726483
0.0397247
-0.00644774
0.0400503
-0.00565503
0.0403275
-0.00488688
-0.00414307
0.0405558
0.00200575
-0.0336471
-0.00045473
0.00355008
-0.0328466
0.00508664
-0.0319844
0.00661274
-0.0310222
0.00812664
-0.0303235
0.00962671
-0.0296714
0.0111104
-0.0288336
0.0125774
-0.0283764
0.014025
-0.0276304
0.0154517
-0.0269712
0.0168569
-0.0264471
0.0182384
-0.0257921
0.0195936
-0.0250655
0.0209228
-0.0244889
0.0222243
-0.0238809
0.0234952
-0.0231447
0.0247347
-0.0224623
0.0259421
-0.0218149
0.027116
-0.0211439
0.0282541
-0.0204053
0.0293549
-0.0196688
0.0304184
-0.0189645
0.0314432
-0.0182415
0.0324282
-0.0175003
0.0333707
-0.0167003
0.0342712
-0.015943
0.0351288
-0.0151745
0.0359426
-0.0143914
0.0367117
-0.0135943
0.0374342
-0.0127638
0.0381106
-0.0119539
0.0387401
-0.0111334
0.0393222
-0.0103018
0.0398562
-0.00945983
0.0403414
-0.0085917
0.0407777
-0.00770112
0.0411647
-0.00683473
0.0415017
-0.0059921
0.0417884
-0.00517353
-0.0043789
0.0420242
0.00201087
-0.0352591
-0.000398841
0.0036158
-0.0344515
0.00521245
-0.0335811
0.00679815
-0.0326079
0.00837101
-0.0318964
0.00992933
-0.0312297
0.0114706
-0.0303749
0.0129943
-0.0299001
0.0144977
-0.0291338
0.0159793
-0.0284528
0.0174384
-0.0279062
0.0188727
-0.0272264
0.0202798
-0.0264726
0.0216596
-0.0258687
0.0230106
-0.0252319
0.0243298
-0.0244639
0.0256163
-0.0237488
0.0268694
-0.023068
0.0280877
-0.0223623
0.0292689
-0.0215864
0.0304114
-0.0208114
0.0315151
-0.0200682
0.0325786
-0.019305
0.0336007
-0.0185224
0.0345789
-0.0176785
0.0355135
-0.0168776
0.0364035
-0.0160645
0.0372479
-0.0152359
0.038046
-0.0143924
0.0387957
-0.0135136
0.0394975
-0.0126557
0.0401506
-0.0117865
0.0407544
-0.0109056
0.0413082
-0.0100136
0.0418111
-0.00909469
0.0422633
-0.00815327
0.0426641
-0.00723556
0.043013
-0.006341
0.0433095
-0.00546998
-0.00462249
0.0435531
0.00201645
-0.0369347
-0.000340859
0.0036845
-0.0361196
0.00534376
-0.0352403
0.00699155
-0.0342557
0.00862585
-0.0335307
0.0102449
-0.0328488
0.0118462
-0.0319762
0.0134289
-0.0314829
0.0149906
-0.0306955
0.0165295
-0.0299917
0.0180447
-0.0294215
0.0195341
-0.0287158
0.0209953
-0.0279338
0.0224279
-0.0273013
0.0238304
-0.0266344
0.0252
-0.0258334
0.0265355
-0.0250844
0.0278363
-0.0243688
0.0291009
-0.0236268
0.0303268
-0.0228124
0.0315128
-0.0219973
0.0326583
-0.0212137
0.0337621
-0.0204088
0.0348228
-0.0195832
0.0358381
-0.0186938
0.0368081
-0.0178476
0.0377317
-0.0169881
0.0386081
-0.0161122
0.0394362
-0.0152204
0.0402142
-0.0142916
0.0409423
-0.0133839
0.0416199
-0.012464
0.0422461
-0.0115318
0.0428203
-0.0105878
0.0433417
-0.00961615
0.0438103
-0.00862182
0.0442255
-0.00765072
0.0445866
-0.00670214
0.0448932
-0.00577656
-0.0048741
0.0451448
0.00202247
-0.0386765