/*--------------------------------*- C++ -*----------------------------------*\
| =========                 |                                                 |
| \\      /  F ield         | OpenFOAM: The Open Source CFD Toolbox           |
|  \\    /   O peration     | Version:  3.0.1                                 |
|   \\  /    A nd           | Web:      www.OpenFOAM.org                      |
|    \\/     M anipulation  |                                                 |
\*---------------------------------------------------------------------------*/
FoamFile
{
    version     2.0;
    format      ascii;
    class       volVectorField;
    location    "500";
    object      U;
}
// * * * * * * * * * * * * * * * * * * * * * * * * * * * * * * * * * * * * * //

dimensions      [0 1 -1 0 0 0 0];

internalField   nonuniform List<vector> 
58000
(
(0.375123 0.517204 -1.14632e-20)
(0.437962 0.703544 2.83903e-20)
(0.529689 0.824118 -8.02525e-21)
(0.629946 0.881269 7.7249e-22)
(0.726048 0.892993 4.19401e-22)
(0.813806 0.876089 0)
(0.889875 0.843952 -1.16912e-20)
(0.952363 0.801953 -2.04531e-21)
(1.00585 0.756603 1.39838e-20)
(1.05035 0.712719 0)
(1.08689 0.670074 1.74674e-20)
(1.11732 0.629535 1.53401e-20)
(1.14214 0.593028 -5.73906e-20)
(1.16188 0.559967 2.11647e-20)
(1.17849 0.529061 1.76479e-20)
(1.1926 0.500616 4.01741e-20)
(1.20382 0.474839 -5.80681e-20)
(1.21307 0.451078 0)
(1.22098 0.428609 4.03375e-20)
(1.22769 0.407305 -6.13205e-20)
(1.23309 0.387586 -2.55325e-22)
(1.23733 0.369179 2.07844e-20)
(1.24103 0.351604 9.84329e-21)
(1.24386 0.334365 0)
(1.24624 0.317969 1.89176e-20)
(1.24753 0.302612 -9.59592e-21)
(1.24843 0.287895 0)
(1.24907 0.273624 4.12909e-22)
(1.24907 0.259511 0)
(1.24887 0.246019 -9.2763e-21)
(1.24797 0.233291 4.58749e-20)
(1.24693 0.220966 -4.55344e-20)
(1.24581 0.208889 -2.74562e-20)
(1.24446 0.196886 7.14277e-20)
(1.24288 0.184993 -1.78302e-20)
(1.23912 0.173108 -9.06037e-21)
(1.23229 0.161799 1.31953e-20)
(1.225 0.152093 -8.51611e-21)
(1.2186 0.143937 1.26125e-20)
(1.22078 0.138267 0)
(0.512556 0.31259 -1.30095e-20)
(0.556737 0.400211 0)
(0.619945 0.478421 -7.45466e-23)
(0.692573 0.542304 7.69971e-23)
(0.768106 0.588571 -5.15047e-21)
(0.84327 0.617131 -6.48222e-21)
(0.912385 0.630454 3.15668e-21)
(0.976113 0.631977 7.95892e-22)
(1.03224 0.623045 1.78591e-20)
(1.07817 0.607583 -1.08578e-20)
(1.11745 0.587911 0)
(1.15056 0.565073 -3.21732e-20)
(1.17715 0.54203 2.01565e-20)
(1.19913 0.519128 1.3459e-20)
(1.21794 0.495539 -1.39928e-20)
(1.23345 0.472647 0)
(1.24614 0.451389 1.4686e-20)
(1.25697 0.430908 0)
(1.26635 0.410638 5.61249e-20)
(1.27426 0.391124 -8.45628e-20)
(1.28082 0.37305 0)
(1.28645 0.355837 7.27651e-20)
(1.29135 0.338905 -5.70663e-20)
(1.29549 0.322113 0)
(1.29884 0.306281 -2.16928e-20)
(1.30157 0.291503 0)
(1.30383 0.277044 0)
(1.30563 0.26276 2.15216e-20)
(1.30691 0.248589 0)
(1.30773 0.235136 -2.13809e-20)
(1.30821 0.222443 2.81022e-20)
(1.30838 0.209946 -2.80144e-20)
(1.3082 0.19751 2.05937e-20)
(1.30758 0.185061 -1.40652e-20)
(1.30646 0.172793 0)
(1.30468 0.160905 -2.08638e-20)
(1.30227 0.150086 1.36748e-20)
(1.29994 0.14092 0)
(1.29876 0.132871 -3.45582e-21)
(1.2986 0.125842 6.75563e-21)
(0.601446 0.277376 7.33097e-21)
(0.612703 0.34093 -3.40549e-21)
(0.635209 0.404791 -1.13058e-20)
(0.669961 0.463778 -1.09004e-21)
(0.715049 0.513737 1.13394e-21)
(0.768155 0.553125 4.7051e-21)
(0.823776 0.579586 -1.4466e-21)
(0.880235 0.594493 0)
(0.934825 0.599622 -5.01085e-21)
(0.984106 0.596079 4.60663e-21)
(1.02934 0.585865 1.01359e-20)
(1.06998 0.570925 -8.31271e-22)
(1.10422 0.553173 0)
(1.13352 0.533495 2.88653e-20)
(1.15946 0.512513 -1.57281e-20)
(1.1814 0.491517 0)
(1.19956 0.471021 0)
(1.21519 0.450751 0)
(1.22897 0.430715 -9.39267e-21)
(1.24077 0.411411 1.06541e-20)
(1.2506 0.393136 0)
(1.25903 0.37548 1.01359e-20)
(1.26649 0.358192 0)
(1.27307 0.341284 0)
(1.27856 0.325273 2.18114e-20)
(1.28308 0.310048 -4.42829e-20)
(1.28697 0.295123 4.41413e-20)
(1.29033 0.2805 1.09523e-20)
(1.29318 0.266165 -2.21806e-20)
(1.29541 0.252516 -1.64381e-20)
(1.29707 0.239468 0)
(1.29833 0.226623 1.0751e-20)
(1.29922 0.213981 0)
(1.29972 0.201551 2.60669e-22)
(1.29978 0.189558 -1.63972e-20)
(1.29938 0.178111 1.10356e-20)
(1.29856 0.16716 0)
(1.29751 0.156659 0)
(1.29651 0.146361 -2.7202e-21)
(1.2956 0.135887 -2.89805e-21)
(0.677069 0.249786 6.4549e-21)
(0.683074 0.293191 2.20935e-21)
(0.694233 0.338787 7.68362e-22)
(0.712709 0.384159 6.13983e-23)
(0.739159 0.426474 -6.2908e-21)
(0.773546 0.464154 0)
(0.813294 0.493988 3.98954e-21)
(0.856721 0.515973 0)
(0.901914 0.529892 -9.53048e-22)
(0.945438 0.535867 -2.50979e-21)
(0.987406 0.535336 -4.724e-21)
(1.0269 0.529298 4.0471e-21)
(1.06178 0.519093 -8.29615e-21)
(1.09267 0.505844 -1.94725e-20)
(1.1207 0.490192 -1.19022e-20)
(1.14501 0.473294 1.12599e-20)
(1.1656 0.455984 -1.14623e-20)
(1.1836 0.438286 0)
(1.19955 0.420258 -5.63628e-21)
(1.21335 0.402439 -2.96053e-20)
(1.22502 0.385287 2.96224e-20)
(1.23512 0.368555 -8.18273e-21)
(1.24405 0.352006 0)
(1.25193 0.335648 0)
(1.2586 0.32001 2.44914e-20)
(1.26422 0.305093 -3.29562e-20)
(1.26911 0.290446 3.37316e-20)
(1.27335 0.276037 3.13076e-22)
(1.27697 0.261848 -6.80813e-20)
(1.27991 0.248264 4.30568e-20)
(1.28227 0.235269 -1.71883e-20)
(1.28416 0.222494 -8.98011e-21)
(1.28562 0.209922 3.45359e-20)
(1.28665 0.197545 -1.27948e-20)
(1.28723 0.185556 4.46972e-21)
(1.28744 0.174045 -4.22893e-21)
(1.28733 0.162885 -4.23271e-21)
(1.287 0.152051 0)
(1.28656 0.141508 2.15423e-21)
(1.28604 0.13119 -2.24424e-21)
(0.725752 0.234145 -3.28759e-21)
(0.729081 0.266821 -6.89104e-21)
(0.735191 0.301531 2.19126e-21)
(0.745788 0.337169 4.98362e-21)
(0.762036 0.372157 3.24741e-22)
(0.784636 0.40557 0)
(0.81265 0.434512 -1.72258e-21)
(0.845201 0.458549 -1.43957e-21)
(0.881127 0.476833 0)
(0.917717 0.488424 -2.47633e-22)
(0.954741 0.494266 1.00769e-21)
(0.991126 0.494851 0)
(1.02459 0.490705 -5.10896e-21)
(1.05533 0.482831 6.30351e-21)
(1.08404 0.47202 0)
(1.10959 0.459169 -1.46056e-20)
(1.13173 0.445043 4.33285e-20)
(1.15143 0.429921 1.36084e-21)
(1.16916 0.414041 -8.68756e-21)
(1.18467 0.397951 0)
(1.19792 0.382098 0)
(1.20949 0.366362 0)
(1.2198 0.350631 1.14834e-20)
(1.22896 0.334976 0)
(1.23677 0.319892 0)
(1.2434 0.305369 0)
(1.24922 0.291039 2.00528e-20)
(1.25432 0.2769 -2.64199e-20)
(1.25875 0.262961 3.3465e-20)
(1.26241 0.249581 -2.04514e-20)
(1.26539 0.236725 0)
(1.26788 0.224065 0)
(1.26989 0.211602 -7.13421e-21)
(1.27145 0.199344 2.09939e-20)
(1.27255 0.18747 2.63641e-23)
(1.27325 0.176043 -1.73683e-20)
(1.27362 0.164898 1.059e-20)
(1.2737 0.153976 0)
(1.27351 0.143264 0)
(1.27299 0.13275 -3.57746e-21)
(0.764109 0.222219 0)
(0.766534 0.247606 4.57187e-21)
(0.770431 0.274662 8.17271e-21)
(0.777078 0.302883 -7.81794e-21)
(0.787596 0.331395 2.03248e-21)
(0.802851 0.359779 -4.94861e-21)
(0.822753 0.385776 -1.24955e-21)
(0.846925 0.40897 -2.75047e-21)
(0.874901 0.428372 8.6678e-22)
(0.904735 0.442654 1.25015e-21)
(0.936142 0.452344 1.08649e-23)
(0.968216 0.457475 -4.52738e-21)
(0.998864 0.457983 9.38721e-21)
(1.02792 0.454661 -5.71232e-21)
(1.05581 0.448207 9.2944e-21)
(1.0813 0.4392 -8.36783e-21)
(1.10392 0.428327 0)
(1.12442 0.416004 0)
(1.14313 0.402527 0)
(1.15973 0.388406 0)
(1.1741 0.374115 -9.19618e-21)
(1.18677 0.35966 -9.08804e-21)
(1.19814 0.345005 2.70372e-20)
(1.2083 0.330249 -1.87104e-20)
(1.21703 0.315863 0)
(1.22451 0.301889 9.68438e-21)
(1.23112 0.288026 -1.54193e-20)
(1.23694 0.274283 2.08543e-20)
(1.24202 0.260682 -3.73041e-20)
(1.24628 0.247558 1.06835e-20)
(1.24981 0.234901 -2.19345e-20)
(1.2528 0.222418 2.19928e-20)
(1.25527 0.210111 -3.34443e-22)
(1.25726 0.197988 5.7816e-21)
(1.25876 0.186212 0)
(1.25984 0.174843 0)
(1.26056 0.16372 -5.70398e-21)
(1.26095 0.152785 5.71961e-21)
(1.26101 0.142055 0)
(1.2607 0.131568 -2.78069e-21)
(0.793561 0.212928 1.54095e-21)
(0.795672 0.233413 -2.23057e-21)
(0.798629 0.255187 -1.16995e-21)
(0.803343 0.278007 2.44392e-21)
(0.810727 0.301389 6.3777e-21)
(0.821563 0.325228 5.19775e-21)
(0.836103 0.347862 2.10827e-21)
(0.854278 0.369005 -2.68117e-22)
(0.876038 0.387789 0)
(0.900092 0.402836 0)
(0.926243 0.414427 -3.50687e-22)
(0.953823 0.422338 0)
(0.981071 0.426094 0)
(1.00766 0.426252 -4.7344e-21)
(1.03384 0.423377 2.37013e-21)
(1.05837 0.417747 -6.83401e-21)
(1.08065 0.409896 3.90601e-21)
(1.10122 0.400291 0)
(1.12029 0.389246 4.98875e-21)
(1.13747 0.377209 6.65201e-21)
(1.15254 0.364634 -1.30408e-20)
(1.16597 0.351624 2.09597e-20)
(1.17812 0.338211 6.32066e-22)
(1.18907 0.324523 -1.4589e-20)
(1.19855 0.311001 8.30901e-21)
(1.20673 0.297723 -1.56015e-20)
(1.21401 0.284459 -1.62529e-20)
(1.22046 0.271233 -8.14366e-21)
(1.22614 0.258081 8.91461e-21)
(1.23093 0.245324 -2.16042e-20)
(1.23495 0.232962 3.54896e-20)
(1.23839 0.220737 1.7147e-22)
(1.24128 0.208658 -3.64244e-20)
(1.24366 0.196738 4.69401e-21)
(1.24553 0.185131 0)
(1.24693 0.173892 1.39124e-20)
(1.24795 0.16287 -4.81366e-21)
(1.2486 0.152012 0)
(1.24888 0.141346 2.3723e-21)
(1.24873 0.130916 2.62866e-21)
(0.817322 0.20523 -1.39607e-21)
(0.819313 0.222185 7.82952e-22)
(0.821828 0.24014 3.00577e-22)
(0.825532 0.258965 1.85069e-23)
(0.83114 0.278375 -2.37665e-22)
(0.839292 0.298419 -6.12924e-21)
(0.850335 0.317885 1.82854e-21)
(0.864339 0.336622 -1.43743e-21)
(0.881463 0.353948 1.49975e-21)
(0.900893 0.368611 0)
(0.92254 0.380767 -7.11555e-22)
(0.945969 0.39008 -7.42252e-22)
(0.969775 0.395855 2.54109e-22)
(0.993594 0.398447 -4.0716e-21)
(1.01756 0.398283 6.15669e-21)
(1.04056 0.39539 -6.91197e-21)
(1.06191 0.390143 8.72474e-21)
(1.08197 0.382993 0)
(1.10087 0.374234 -4.3197e-21)
(1.11814 0.36423 4.78763e-21)
(1.13352 0.353394 -5.20163e-21)
(1.14738 0.341893 1.07879e-20)
(1.16003 0.329807 -2.23514e-20)
(1.17152 0.317283 1.15057e-20)
(1.18156 0.304725 6.49373e-21)
(1.1903 0.292245 6.70465e-21)
(1.19812 0.279675 -1.34487e-20)
(1.20509 0.267057 2.72484e-20)
(1.21126 0.254437 0)
(1.21651 0.242118 2.19072e-20)
(1.22096 0.230117 -2.15303e-20)
(1.2248 0.218212 1.49095e-20)
(1.22807 0.206417 -1.10904e-20)
(1.23079 0.194748 3.92782e-21)
(1.23298 0.183353 3.74634e-21)
(1.23467 0.172285 -2.2105e-22)
(1.23595 0.16141 -4.03618e-21)
(1.23683 0.150681 0)
(1.23731 0.140131 -1.98486e-21)
(1.23733 0.129811 2.08467e-21)
(0.836813 0.198627 0)
(0.838777 0.212955 0)
(0.841089 0.228068 -5.63984e-21)
(0.844249 0.243887 3.06705e-21)
(0.848819 0.260229 -1.41653e-21)
(0.855306 0.27721 6.69128e-21)
(0.864051 0.293933 -4.58629e-21)
(0.875175 0.310343 0)
(0.888922 0.325931 0)
(0.90479 0.33963 1.3478e-21)
(0.922769 0.351545 1.27818e-22)
(0.94261 0.361318 -2.87988e-22)
(0.963237 0.368176 1.49536e-21)
(0.98431 0.372322 5.20015e-22)
(1.00592 0.374068 -1.32107e-21)
(1.02708 0.373263 0)
(1.04713 0.370132 0)
(1.06629 0.365077 0)
(1.08459 0.358349 0)
(1.10158 0.350223 -7.18265e-21)
(1.11691 0.341052 7.26106e-21)
(1.1309 0.331041 1.2438e-20)
(1.14378 0.320298 -1.77461e-20)
(1.15558 0.308977 4.67105e-21)
(1.16599 0.297439 0)
(1.17513 0.285825 -1.05886e-20)
(1.18336 0.27402 1.06537e-20)
(1.19073 0.262079 -5.84078e-21)
(1.1973 0.250059 0)
(1.20293 0.238245 -6.23406e-21)
(1.20774 0.226669 6.06223e-21)
(1.21192 0.215143 2.46612e-20)
(1.21552 0.203687 -2.5111e-20)
(1.21855 0.19232 1.26681e-20)
(1.22101 0.181185 -3.32964e-21)
(1.22295 0.170339 -1.62671e-20)
(1.22446 0.159658 6.5802e-21)
(1.22555 0.149105 3.33386e-21)
(1.22622 0.138716 -5.02102e-21)
(1.2264 0.128538 1.7559e-21)
(0.853118 0.192815 0)
(0.855083 0.205122 0)
(0.857298 0.218054 3.26472e-21)
(0.860151 0.231558 -3.52846e-21)
(0.864088 0.245507 -3.22711e-22)
(0.869509 0.260034 -3.44758e-21)
(0.876716 0.274459 4.00301e-21)
(0.885838 0.288788 1.02917e-21)
(0.897135 0.302648 -2.94136e-21)
(0.910299 0.315156 1.25153e-21)
(0.925376 0.326398 -2.60015e-22)
(0.942243 0.336044 -2.20165e-22)
(0.960088 0.343327 -5.29368e-22)
(0.978627 0.348353 9.31952e-22)
(0.997938 0.351345 2.46312e-21)
(1.01719 0.352039 1.45496e-22)
(1.03575 0.350541 -2.93669e-21)
(1.05375 0.347186 0)
(1.07119 0.342177 -4.34053e-21)
(1.0876 0.335704 5.02491e-21)
(1.10262 0.328054 -6.24819e-21)
(1.11647 0.319444 3.39222e-21)
(1.12935 0.309994 4.82977e-22)
(1.14124 0.299857 4.46016e-21)
(1.15184 0.28935 -7.93377e-21)
(1.16122 0.278628 0)
(1.16972 0.267625 1.33665e-20)
(1.17739 0.256401 -2.30308e-20)
(1.18425 0.245026 1.91459e-20)
(1.19018 0.233762 -1.49136e-20)
(1.19528 0.222658 -1.02056e-20)
(1.19975 0.211556 1.02618e-20)
(1.20361 0.200481 1.06351e-20)
(1.2069 0.189459 -1.06725e-20)
(1.2096 0.178625 5.4815e-21)
(1.21176 0.168038 1.92667e-22)
(1.21347 0.157591 0)
(1.21474 0.147252 0)
(1.21558 0.137058 2.7751e-21)
(1.21591 0.127056 0)
(0.866956 0.187604 1.29152e-21)
(0.86893 0.198315 3.239e-22)
(0.871098 0.209532 -3.31161e-22)
(0.873768 0.221214 9.78174e-24)
(0.877299 0.233265 0)
(0.882012 0.245818 2.12817e-21)
(0.88816 0.258341 -9.88416e-22)
(0.895865 0.270876 1.00322e-21)
(0.905375 0.283146 -1.33663e-21)
(0.916496 0.294429 1.49897e-21)
(0.929303 0.304807 -9.19791e-22)
(0.943753 0.313994 0)
(0.959242 0.321278 1.98009e-22)
(0.975543 0.326704 7.73593e-22)
(0.992734 0.330431 2.95287e-21)
(1.01013 0.332139 -3.47808e-21)
(1.02715 0.331841 7.53896e-21)
(1.04389 0.329811 -2.71908e-21)
(1.0603 0.326202 3.89494e-21)
(1.07594 0.32113 -4.511e-21)
(1.09043 0.314818 0)
(1.10395 0.307477 5.60348e-21)
(1.11663 0.299228 5.52474e-21)
(1.12844 0.290214 0)
(1.13906 0.280708 0)
(1.14854 0.270873 6.77908e-21)
(1.15719 0.260676 3.6865e-21)
(1.16503 0.250187 -3.57322e-21)
(1.17209 0.239478 7.75152e-21)
(1.17824 0.228792 1.24415e-20)
(1.18356 0.218192 -8.43508e-21)
(1.18825 0.207547 0)
(1.19232 0.196886 -9.02348e-21)
(1.19582 0.186241 9.05878e-21)
(1.19872 0.175741 4.66996e-21)
(1.20107 0.165448 4.1814e-23)
(1.20295 0.155267 -4.76151e-21)
(1.20438 0.145173 0)
(1.20536 0.135203 -7.26634e-21)
(1.20583 0.125404 0)
(0.878844 0.182864 -1.68058e-21)
(0.880826 0.192288 1.87653e-21)
(0.882969 0.202126 1.74231e-21)
(0.885521 0.212346 -1.94449e-21)
(0.888778 0.222869 -1.86422e-21)
(0.893 0.233818 -1.9554e-21)
(0.898397 0.244768 -1.66589e-21)
(0.905079 0.255777 1.5046e-21)
(0.913264 0.266638 1.14018e-22)
(0.92283 0.276759 -1.09141e-21)
(0.933864 0.286222 1.45562e-21)
(0.946371 0.294787 -3.89983e-22)
(0.9599 0.301817 -1.69629e-22)
(0.974275 0.30732 -5.88715e-22)
(0.989577 0.311416 -1.09804e-21)
(1.00524 0.31376 1.91778e-21)
(1.02078 0.314306 -3.49814e-21)
(1.03623 0.313271 -2.20771e-21)
(1.05154 0.310765 6.19312e-21)
(1.06629 0.306844 -6.28236e-21)
(1.08013 0.301673 0)
(1.09317 0.295446 0)
(1.1055 0.28828 -4.67816e-22)
(1.11708 0.2803 0)
(1.12759 0.271737 0)
(1.13704 0.262755 -6.14991e-21)
(1.14572 0.253347 -5.98199e-21)
(1.15364 0.243585 -6.28656e-21)
(1.1608 0.233544 6.38635e-21)
(1.16709 0.223449 -3.78269e-21)
(1.17256 0.21337 -3.10372e-22)
(1.1774 0.203201 7.37304e-21)
(1.18164 0.192977 0)
(1.18529 0.182732 1.16471e-20)
(1.18835 0.172591 -7.91152e-21)
(1.19085 0.162616 -8.00372e-21)
(1.19287 0.152726 4.09106e-21)
(1.19443 0.142903 -2.08837e-21)
(1.19554 0.133183 6.43169e-21)
(1.19612 0.123611 0)
(0.889163 0.178507 1.0031e-21)
(0.891147 0.186875 -7.46272e-22)
(0.893273 0.195583 -4.11765e-22)
(0.895744 0.204608 1.60973e-21)
(0.898806 0.213882 1.93845e-21)
(0.902673 0.223513 -7.41923e-22)
(0.90752 0.233155 2.30341e-21)
(0.91344 0.242871 -2.64961e-21)
(0.920624 0.252505 2.33228e-21)
(0.928993 0.261567 1.00254e-21)
(0.938635 0.270139 -7.42315e-22)
(0.949581 0.278023 2.77567e-22)
(0.961491 0.284658 -4.17424e-22)
(0.974232 0.290036 2.79093e-22)
(0.987886 0.294247 1.24757e-21)
(1.002 0.29695 1.69239e-22)
(1.01614 0.29806 -1.56872e-21)
(1.03034 0.297746 7.9273e-21)
(1.04455 0.296084 -1.13872e-20)
(1.05837 0.293085 1.09407e-20)
(1.07148 0.288864 -2.92698e-21)
(1.08393 0.283593 0)
(1.09581 0.277378 -3.74285e-22)
(1.10705 0.270326 0)
(1.11733 0.262632 0)
(1.12666 0.254451 0)
(1.13527 0.245795 4.10809e-22)
(1.14317 0.236736 1.70011e-20)
(1.15036 0.227351 -1.72826e-20)
(1.1567 0.217842 -1.39478e-22)
(1.16226 0.208289 -1.25299e-20)
(1.1672 0.198605 6.45607e-21)
(1.17155 0.18883 -6.24278e-21)
(1.17531 0.178999 -1.01243e-20)
(1.17849 0.169233 -3.33525e-21)
(1.1811 0.159595 7.00369e-21)
(1.18323 0.150016 0)
(1.1849 0.140482 -3.50815e-21)
(1.18611 0.131031 -4.4643e-21)
(1.18678 0.121705 9.41758e-22)
(0.898198 0.174469 8.24783e-22)
(0.900179 0.181954 0)
(0.902288 0.189724 -3.02138e-21)
(0.904697 0.197758 1.38722e-21)
(0.907613 0.205994 1.65962e-21)
(0.911212 0.21453 -3.39113e-22)
(0.915641 0.223077 0)
(0.92098 0.231697 1.1715e-21)
(0.927393 0.240269 -1.03233e-21)
(0.934825 0.248386 7.16652e-22)
(0.943362 0.256127 3.73729e-22)
(0.953048 0.263329 -2.55117e-22)
(0.963622 0.269503 -1.45554e-22)
(0.974984 0.274635 0)
(0.987218 0.278795 -1.78075e-21)
(0.999955 0.281659 2.17271e-21)
(1.01283 0.28312 0)
(1.02586 0.283311 -3.06121e-21)
(1.03899 0.282279 2.00227e-21)
(1.05188 0.280002 -4.83849e-21)
(1.06422 0.276556 2.13879e-21)
(1.07604 0.272091 0)
(1.0874 0.266695 3.41696e-21)
(1.09821 0.260464 -3.45433e-21)
(1.10819 0.253553 0)
(1.11731 0.246109 -8.61867e-21)
(1.12577 0.238157 9.02705e-21)
(1.13358 0.229765 5.06789e-21)
(1.14071 0.221009 -9.6565e-21)
(1.14705 0.212073 0)
(1.15264 0.203038 2.36904e-22)
(1.15763 0.193839 -1.07745e-20)
(1.16203 0.184515 5.86198e-21)
(1.16586 0.175105 0)
(1.16911 0.165723 3.07075e-21)
(1.17181 0.156434 -3.12948e-21)
(1.17402 0.147179 3.00258e-21)
(1.17576 0.137949 3.23231e-21)
(1.17705 0.128782 6.36361e-21)
(1.1778 0.119718 3.1876e-21)
(0.906168 0.170701 0)
(0.908139 0.177441 0)
(0.910231 0.184419 1.07405e-22)
(0.912589 0.191619 -2.47672e-21)
(0.915387 0.198984 -1.1162e-22)
(0.918776 0.206599 -1.06542e-21)
(0.922877 0.21422 0)
(0.92776 0.221906 0)
(0.933565 0.229561 -7.56845e-22)
(0.940252 0.236842 7.74255e-22)
(0.947901 0.243826 2.95868e-23)
(0.956562 0.250377 4.43579e-22)
(0.966029 0.256072 0)
(0.97623 0.260893 0)
(0.987245 0.264899 6.97931e-22)
(0.998775 0.267787 -1.24453e-21)
(1.01051 0.269444 3.7802e-22)
(1.02246 0.269971 1.90912e-21)
(1.03458 0.269396 -2.82647e-21)
(1.04657 0.267675 0)
(1.05814 0.264852 2.09703e-21)
(1.0693 0.261054 2.38332e-21)
(1.0801 0.256357 0)
(1.09044 0.250839 3.16098e-21)
(1.10005 0.244625 -6.43997e-21)
(1.1089 0.237849 0)
(1.11715 0.230545 3.97276e-21)
(1.1248 0.222776 -4.0652e-21)
(1.13182 0.214615 1.2407e-20)
(1.1381 0.206229 0)
(1.14366 0.197699 9.23949e-21)
(1.14864 0.188975 4.93611e-21)
(1.15306 0.180098 4.77726e-21)
(1.15693 0.171109 -5.09784e-21)
(1.16021 0.162114 5.13654e-21)
(1.16296 0.15318 0)
(1.16522 0.144257 -2.77889e-21)
(1.16702 0.13534 0)
(1.16837 0.126467 -2.86268e-21)
(1.16917 0.117678 -2.93658e-21)
(0.913244 0.167167 5.90327e-22)
(0.9152 0.17327 -8.77458e-22)
(0.917272 0.179573 2.50897e-21)
(0.919583 0.186062 1.11653e-21)
(0.922283 0.192687 -1.06294e-21)
(0.925501 0.199519 1.45684e-21)
(0.929337 0.206351 -4.66708e-22)
(0.933853 0.213236 1.53601e-21)
(0.939167 0.220097 7.09981e-22)
(0.945251 0.226644 6.57652e-22)
(0.952177 0.232946 -8.66753e-23)
(0.959993 0.238892 -4.03698e-22)
(0.968538 0.244116 4.13556e-22)
(0.977758 0.248598 -2.21132e-22)
(0.987728 0.252388 -2.59871e-22)
(0.998204 0.255212 2.48188e-21)
(1.00892 0.256952 -1.49465e-21)
(1.01989 0.257689 1.84967e-21)
(1.03108 0.257437 -2.87681e-21)
(1.04221 0.256136 -1.22841e-22)
(1.05303 0.253807 -1.9454e-21)
(1.06354 0.250556 2.24393e-21)
(1.07375 0.246446 5.83051e-23)
(1.0836 0.241541 0)
(1.09281 0.235939 0)
(1.10133 0.229764 -5.94154e-21)
(1.10933 0.223049 -3.17909e-21)
(1.11677 0.215856 -3.3781e-21)
(1.12364 0.208251 -2.53841e-22)
(1.1298 0.200385 -1.15904e-20)
(1.13529 0.19234 3.73401e-21)
(1.14023 0.184077 0)
(1.14463 0.175637 -8.77795e-21)
(1.14848 0.167062 8.65018e-21)
(1.15178 0.158453 0)
(1.15454 0.149874 4.66371e-21)
(1.15683 0.141287 -2.31913e-21)
(1.15866 0.132688 -4.80726e-21)
(1.16004 0.124117 3.65462e-21)
(1.16088 0.11561 -3.66769e-21)
(0.919563 0.163838 0)
(0.921499 0.16939 0)
(0.923548 0.175111 -1.92928e-21)
(0.925814 0.18099 0)
(0.928429 0.186979 0)
(0.931501 0.19314 3.91163e-22)
(0.935117 0.199293 -4.00497e-22)
(0.939329 0.205488 -1.4462e-21)
(0.94424 0.211659 -1.27269e-21)
(0.949826 0.217559 -1.40284e-21)
(0.956154 0.223252 -1.09772e-21)
(0.963268 0.228644 -3.42642e-22)
(0.971038 0.233418 5.04891e-22)
(0.979423 0.237556 3.41377e-22)
(0.988496 0.2411 -3.29351e-22)
(0.998052 0.243802 2.01133e-21)
(1.00787 0.245549 -1.14056e-21)
(1.01796 0.246404 1.71197e-21)
(1.02828 0.24637 0)
(1.03862 0.24538 5.75176e-21)
(1.04872 0.243438 -6.00589e-21)
(1.05858 0.240632 -3.48464e-21)
(1.06822 0.237012 -8.16938e-21)
(1.07756 0.23263 -3.51724e-22)
(1.08634 0.227563 -3.67679e-22)
(1.09452 0.22192 1.06812e-20)
(1.10223 0.215738 2.96173e-21)
(1.10942 0.20907 9.01962e-21)
(1.1161 0.20198 -9.50355e-21)
(1.12212 0.194604 3.4844e-21)
(1.1275 0.187019 7.10939e-21)
(1.13236 0.179197 -7.15858e-21)
(1.13669 0.17118 0)
(1.14051 0.163009 -3.99624e-21)
(1.14379 0.15478 0)
(1.14654 0.146555 1.42234e-22)
(1.14883 0.138303 -4.12893e-21)
(1.15067 0.130025 0)
(1.15207 0.121758 4.18401e-21)
(1.15293 0.113539 1.24914e-22)
(0.925233 0.160691 9.3382e-22)
(0.927145 0.165763 -2.15259e-22)
(0.929167 0.170979 2.90388e-22)
(0.93139 0.176327 -6.41989e-24)
(0.933926 0.181765 2.90585e-21)
(0.936873 0.187345 -3.37777e-22)
(0.940301 0.192911 -2.76903e-22)
(0.944257 0.198505 -5.02093e-22)
(0.94883 0.204075 -4.68762e-22)
(0.953999 0.209405 1.38285e-21)
(0.959823 0.214555 6.90674e-22)
(0.966346 0.219445 0)
(0.973458 0.223799 -3.12913e-22)
(0.98113 0.2276 1.52728e-22)
(0.989427 0.230885 -7.25555e-22)
(0.998181 0.233433 -8.31165e-22)
(1.0072 0.235135 1.11827e-21)
(1.0165 0.23604 1.59436e-21)
(1.02604 0.236147 -1.73655e-21)
(1.03564 0.235384 0)
(1.04506 0.233741 2.8534e-21)
(1.05431 0.231293 3.54833e-21)
(1.06339 0.22808 6.25734e-22)
(1.07221 0.224142 -1.15462e-20)
(1.08056 0.219538 -4.14945e-21)
(1.08838 0.214366 0)
(1.09577 0.208661 5.11378e-21)
(1.1027 0.202471 -1.06446e-20)
(1.10915 0.195855 5.7898e-21)
(1.11499 0.188934 -2.88366e-22)
(1.12024 0.181783 5.74659e-21)
(1.12499 0.174382 1.24816e-20)
(1.12924 0.166771 -3.21135e-21)
(1.13299 0.158991 0)
(1.13622 0.151132 -3.40831e-21)
(1.13895 0.143255 3.70565e-21)
(1.14122 0.135335 0)
(1.14305 0.127376 3.63933e-21)
(1.14444 0.119415 -4.87277e-21)
(1.14531 0.111485 2.93999e-21)
(0.930343 0.157707 0)
(0.932227 0.162358 0)
(0.93422 0.16713 -6.41258e-22)
(0.936399 0.172015 -5.61555e-24)
(0.938864 0.176971 -4.02755e-21)
(0.941698 0.182045 0)
(0.944962 0.187097 -1.0906e-21)
(0.948698 0.192168 2.0424e-21)
(0.952981 0.19721 0)
(0.957794 0.202037 0)
(0.96319 0.206702 0)
(0.969208 0.211139 2.34351e-22)
(0.975757 0.215104 -2.13656e-22)
(0.982813 0.218584 -1.30379e-22)
(0.990439 0.221611 -2.61765e-22)
(0.998489 0.223986 -1.26206e-22)
(1.0068 0.225609 -7.08401e-23)
(1.01539 0.226519 -1.38973e-21)
(1.02423 0.226708 0)
(1.03314 0.226106 0)
(1.04194 0.224695 0)
(1.0506 0.222534 8.59274e-21)
(1.05913 0.219657 -5.59528e-21)
(1.06746 0.216094 7.08914e-21)
(1.07538 0.211891 2.92915e-22)
(1.08282 0.207133 -4.18784e-21)
(1.08989 0.201854 4.22023e-21)
(1.09654 0.196096 -4.76667e-21)
(1.10274 0.189914 9.55275e-21)
(1.10838 0.183414 -3.33013e-22)
(1.11347 0.17667 -5.59031e-21)
(1.11809 0.169666 -3.50149e-22)
(1.12223 0.162442 -2.65613e-21)
(1.1259 0.155039 6.08718e-21)
(1.12906 0.147538 1.92063e-22)
(1.13174 0.140002 -3.15145e-21)
(1.13397 0.132408 3.27094e-21)
(1.13577 0.124765 -9.93861e-21)
(1.13715 0.117107 2.43289e-21)
(1.13801 0.109468 8.4528e-22)
(0.934967 0.154871 -3.08963e-22)
(0.936821 0.15915 5.15011e-22)
(0.938781 0.16353 2.42528e-21)
(0.940916 0.168006 1.18109e-21)
(0.943312 0.172539 1.48385e-21)
(0.946043 0.177168 -2.79478e-22)
(0.949162 0.181769 8.91847e-23)
(0.952705 0.186379 3.24051e-22)
(0.956736 0.190956 -1.10345e-21)
(0.961242 0.195338 1.29555e-21)
(0.966269 0.199571 -4.43027e-22)
(0.971852 0.203599 8.26833e-23)
(0.977913 0.207208 2.9681e-22)
(0.984434 0.210387 -2.51e-22)
(0.991472 0.213162 3.69145e-22)
(0.998904 0.215358 1.24881e-21)
(1.00659 0.216881 1.13063e-21)
(1.01455 0.217763 -3.21737e-21)
(1.02274 0.217993 0)
(1.03103 0.217502 0)
(1.03924 0.216266 2.01943e-21)
(1.04735 0.214336 5.053e-21)
(1.05537 0.211736 -5.35974e-21)
(1.06322 0.20849 -5.46962e-22)
(1.07071 0.204633 -5.18097e-22)
(1.07778 0.200238 -4.92925e-22)
(1.08451 0.195338 3.47752e-21)
(1.09087 0.18997 3.97966e-21)
(1.09682 0.184183 -8.91475e-21)
(1.10225 0.178073 4.1893e-21)
(1.10716 0.171708 4.86381e-21)
(1.11162 0.165079 -1.47722e-22)
(1.11564 0.158222 2.43317e-22)
(1.1192 0.151178 5.39737e-21)
(1.12228 0.144024 -2.66553e-21)
(1.12489 0.136817 -5.6411e-21)
(1.12707 0.129544 2.86487e-21)
(1.12884 0.12221 3.03742e-21)
(1.13019 0.114853 -1.74154e-22)
(1.13102 0.107503 0)
(0.939166 0.152169 1.60872e-21)
(0.940987 0.156117 -3.0909e-22)
(0.942912 0.16015 -1.18835e-21)
(0.945002 0.164264 -9.97223e-22)
(0.947332 0.168421 -1.31303e-22)
(0.949969 0.172656 4.46043e-22)
(0.952956 0.17686 1.27534e-21)
(0.956326 0.181062 -8.01939e-22)
(0.960136 0.185228 0)
(0.964372 0.189213 -5.65885e-22)
(0.969077 0.193061 4.20795e-22)
(0.97428 0.19672 -4.08026e-22)
(0.979915 0.200005 1.75884e-22)
(0.985968 0.202902 2.28003e-23)
(0.992489 0.205439 8.84859e-22)
(0.999375 0.207455 -1.47434e-21)
(1.0065 0.208866 0)
(1.01389 0.209699 1.07774e-21)
(1.0215 0.209939 0)
(1.02922 0.209521 1.52263e-21)
(1.03689 0.208418 -5.8352e-21)
(1.04449 0.206672 3.96004e-21)
(1.05202 0.204301 -4.76351e-21)
(1.05941 0.201323 0)
(1.06648 0.197764 -2.82022e-21)
(1.07319 0.193688 0)
(1.07959 0.189125 -6.98663e-21)
(1.08565 0.184108 7.04026e-21)
(1.09133 0.178681 0)
(1.09654 0.17293 -8.33277e-21)
(1.10126 0.166918 -1.56987e-22)
(1.10556 0.16064 4.27214e-21)
(1.10944 0.154131 -4.52415e-21)
(1.11288 0.147429 0)
(1.11586 0.140607 0)
(1.1184 0.133721 0)
(1.12051 0.126758 7.58759e-21)
(1.12222 0.119728 -2.60791e-21)
(1.12353 0.112666 -1.55584e-22)
(1.12434 0.105602 0)
(0.94299 0.149591 -3.00172e-22)
(0.944777 0.153243 -2.74889e-22)
(0.946665 0.156965 9.76527e-22)
(0.948709 0.160756 -9.22064e-22)
(0.950976 0.164579 -2.14205e-22)
(0.953523 0.168465 1.00956e-21)
(0.95639 0.172315 -4.35508e-22)
(0.959605 0.176155 2.56037e-22)
(0.963217 0.179955 -1.16578e-21)
(0.967214 0.183587 -4.36317e-22)
(0.971633 0.187088 0)
(0.976502 0.190416 -1.16513e-22)
(0.981761 0.193405 6.80267e-23)
(0.9874 0.196043 -3.09311e-22)
(0.993464 0.198354 4.36965e-22)
(0.999864 0.200195 0)
(1.00649 0.20149 0)
(1.01336 0.202259 3.8962e-21)
(1.02045 0.202489 4.38397e-22)
(1.02765 0.202116 -1.29868e-21)
(1.03482 0.201113 3.1731e-21)
(1.04194 0.199513 -3.62646e-21)
(1.04901 0.197331 -1.90959e-21)
(1.05596 0.19458 -4.88803e-21)
(1.06264 0.191278 7.61526e-21)
(1.06899 0.187483 5.78249e-21)
(1.07506 0.18322 -1.49526e-20)
(1.08083 0.17852 9.37703e-21)
(1.08624 0.17342 6.98502e-21)
(1.09122 0.167999 -3.55032e-21)
(1.09574 0.162315 0)
(1.09987 0.156366 3.82722e-21)
(1.1036 0.150185 0)
(1.10691 0.143809 0)
(1.10979 0.137305 4.40809e-21)
(1.11223 0.130726 -8.79944e-21)
(1.11427 0.124064 -9.195e-21)
(1.11592 0.117331 -4.55811e-21)
(1.11718 0.110558 -4.17986e-21)
(1.11795 0.103775 -5.89309e-22)
(0.946484 0.147128 0)
(0.948234 0.150513 0)
(0.950084 0.153957 -1.80591e-21)
(0.952081 0.157458 6.4674e-23)
(0.954286 0.160982 7.62347e-22)
(0.956749 0.164556 -7.60321e-22)
(0.959505 0.168089 6.35345e-22)
(0.962577 0.171606 0)
(0.96601 0.17508 5.19342e-22)
(0.969792 0.178395 1.16535e-21)
(0.973957 0.181586 -5.31603e-22)
(0.978528 0.184615 -2.90739e-22)
(0.983453 0.187334 0)
(0.988724 0.189734 -2.63429e-22)
(0.994382 0.191835 -1.32264e-21)
(1.00035 0.193509 1.67477e-21)
(1.00653 0.194686 2.09991e-22)
(1.01293 0.195384 -5.08642e-21)
(1.01955 0.195588 2.13324e-21)
(1.02627 0.19524 -7.56135e-21)
(1.03297 0.19431 -2.91768e-22)
(1.03965 0.192828 2.03882e-22)
(1.04629 0.190802 2.31834e-22)
(1.05283 0.188244 4.35417e-21)
(1.05913 0.185166 3.67296e-22)
(1.06513 0.181617 -4.48464e-21)
(1.07089 0.177622 -2.73847e-21)
(1.07636 0.173207 -3.28589e-21)
(1.08151 0.168405 5.926e-21)
(1.08625 0.163288 -3.32369e-21)
(1.09058 0.157908 0)
(1.09453 0.152267 -5.58401e-23)
(1.0981 0.146395 -1.08597e-20)
(1.10127 0.140327 -9.57009e-23)
(1.10403 0.134127 3.85814e-21)
(1.10637 0.127844 4.13419e-21)
(1.10833 0.121474 4.23318e-21)
(1.10991 0.115028 4.32385e-21)
(1.11111 0.108537 6.35264e-21)
(1.11184 0.102029 0)
(0.949684 0.144771 2.42834e-23)
(0.951396 0.147916 -8.26782e-22)
(0.953206 0.151109 8.35147e-22)
(0.955156 0.154349 -8.55345e-22)
(0.9573 0.157604 -5.48933e-22)
(0.959683 0.160897 0)
(0.962334 0.164147 -6.08965e-22)
(0.965275 0.167375 0)
(0.968545 0.170555 8.19364e-22)
(0.972133 0.173586 -7.16231e-22)
(0.976068 0.176498 5.08182e-22)
(0.980372 0.179257 2.77724e-22)
(0.984998 0.181731 -7.95185e-24)
(0.989938 0.183912 -1.46745e-22)
(0.995231 0.185817 9.49108e-22)
(1.00081 0.187333 1.40626e-22)
(1.00658 0.188396 1.85335e-22)
(1.01256 0.189018 0)
(1.01875 0.189187 3.96807e-21)
(1.02503 0.188848 -2.06668e-21)
(1.03131 0.187973 2.78718e-21)
(1.03757 0.186584 -2.88634e-21)
(1.04381 0.184689 9.91454e-21)
(1.04996 0.182295 0)
(1.0559 0.179411 0)
(1.06157 0.176081 2.6962e-22)
(1.06702 0.172325 -4.95124e-21)
(1.0722 0.168167 0)
(1.07709 0.163637 -2.85256e-22)
(1.08161 0.158799 5.62929e-21)
(1.08572 0.153702 -2.79098e-22)
(1.0895 0.148348 6.18585e-21)
(1.0929 0.142768 3.37678e-21)
(1.09594 0.136992 -6.7201e-21)
(1.09857 0.131082 -7.52903e-23)
(1.10081 0.125083 3.55849e-21)
(1.10268 0.118994 0)
(1.10418 0.112826 1.76632e-21)
(1.10532 0.10661 -2.04245e-21)
(1.106 0.100371 -3.65867e-21)
(0.952621 0.142514 4.78288e-23)
(0.954294 0.145441 1.37561e-21)
(0.956064 0.148406 -1.85504e-22)
(0.957966 0.15141 1.24134e-21)
(0.96005 0.154422 4.68192e-22)
(0.962355 0.157462 3e-22)
(0.964908 0.160457 -9.88812e-22)
(0.967727 0.163424 0)
(0.970848 0.166341 -1.4996e-21)
(0.974258 0.169116 0)
(0.977984 0.171777 0)
(0.982047 0.174291 0)
(0.986402 0.176542 4.11187e-23)
(0.991045 0.178523 0)
(0.996008 0.180248 1.37629e-22)
(1.00123 0.181615 -2.36531e-21)
(1.00664 0.182566 1.99848e-21)
(1.01224 0.183113 1.34937e-21)
(1.01803 0.183241 0)
(1.02391 0.182901 -1.9706e-21)
(1.0298 0.182064 -2.50779e-21)
(1.03568 0.180751 -8.43461e-23)
(1.04153 0.178966 -3.34435e-21)
(1.04732 0.176713 2.94578e-21)
(1.05291 0.173999 3.53368e-21)
(1.05827 0.170862 2.37075e-22)