# p  FACE_DATA 180
#  x  y  z  p
-0.49912 -0.0178469 0.5 0.0379467
-0.496703 -0.0110232 0.5 -0.235831
-0.492976 -0.00470316 0.5 -0.454435
-0.488305 0.00101201 0.5 -0.587289
-0.483079 0.00619137 0.5 -0.665785
-0.477364 0.0110256 0.5 -0.721543
-0.471461 0.0154276 0.5 -0.759699
-0.465306 0.0195404 0.5 -0.784743
-0.4589 0.0234414 0.5 -0.800238
-0.452528 0.0270077 0.5 -0.805966
-0.445952 0.0304188 0.5 -0.80577
-0.439149 0.0337051 0.5 -0.801562
-0.432452 0.0367332 0.5 -0.793032
-0.42574 0.0395854 0.5 -0.782494
-0.41874 0.0423878 0.5 -0.772131
-0.411728 0.0450352 0.5 -0.762203
-0.404865 0.0474841 0.5 -0.752221
-0.397915 0.0498366 0.5 -0.743008
-0.390751 0.0521356 0.5 -0.734645
-0.383559 0.0543232 0.5 -0.726599
-0.376523 0.0563547 0.5 -0.718314
-0.369482 0.0582886 0.5 -0.710529
-0.362276 0.0601709 0.5 -0.703319
-0.354912 0.0619957 0.5 -0.696264
-0.347677 0.0636973 0.5 -0.688861
-0.340599 0.0652782 0.5 -0.681248
-0.333405 0.0668064 0.5 -0.674114
-0.326085 0.0682825 0.5 -0.667245
-0.318645 0.0697025 0.5 -0.660301
-0.31134 0.0710223 0.5 -0.653061
-0.30418 0.0722464 0.5 -0.645721
-0.296921 0.0734217 0.5 -0.638794
-0.289562 0.0745469 0.5 -0.632109
-0.28211 0.0756193 0.5 -0.625408
-0.274704 0.0766147 0.5 -0.6185
-0.267401 0.0775122 0.5 -0.610389
-0.260063 0.0783355 0.5 -0.599095
-0.252654 0.0791184 0.5 -0.587279
-0.245219 0.0798859 0.5 -0.578067
-0.2378 0.080663 0.5 -0.571095
-0.224839 0.0817289 0.5 -0.575116
-0.206269 0.0830322 0.5 -0.550571
-0.187674 0.0840951 0.5 -0.535916
-0.169064 0.084806 0.5 -0.52062
-0.150345 0.0852257 0.5 -0.502821
-0.131676 0.08537 0.5 -0.485219
-0.113021 0.0852486 0.5 -0.468143
-0.0943277 0.084875 0.5 -0.451312
-0.0756917 0.084257 0.5 -0.434619
-0.0570011 0.0834008 0.5 -0.417831
-0.0383534 0.0823192 0.5 -0.401381
-0.0197504 0.0810174 0.5 -0.38507
-0.00112107 0.0795021 0.5 -0.368788
0.0174734 0.0777822 0.5 -0.352919
0.0360496 0.0758617 0.5 -0.337049
0.0546122 0.0737509 0.5 -0.321367
0.0731526 0.0714525 0.5 -0.306063
0.0916487 0.0689774 0.5 -0.290745
0.110146 0.0663258 0.5 -0.275766
0.128625 0.0635019 0.5 -0.260931
0.147048 0.0605228 0.5 -0.246138
0.165487 0.0573791 0.5 -0.231748
0.183835 0.0540934 0.5 -0.217395
0.202198 0.0506563 0.5 -0.203223
0.220585 0.0470661 0.5 -0.189334
0.238853 0.0433596 0.5 -0.175527
0.257171 0.0395065 0.5 -0.162084
0.275342 0.0355523 0.5 -0.14881
0.293582 0.0314574 0.5 -0.135762
0.311841 0.0272353 0.5 -0.122984
0.330014 0.022917 0.5 -0.110454
0.348196 0.0184857 0.5 -0.0983432
0.36633 0.0139572 0.5 -0.0865139
0.384412 0.00933809 0.5 -0.0751725
0.402529 0.00460539 0.5 -0.0641617
0.420474 -0.00018151 0.5 -0.0537831
0.438458 -0.00509393 0.5 -0.0438203
0.456725 -0.0102191 0.5 -0.034565
0.474747 -0.0154967 0.5 -0.0250741
0.491852 -0.0216996 0.5 -0.0205045
-0.269191 -0.062892 0.5 0.163102
-0.275538 -0.0632599 0.5 0.16437
-0.281914 -0.0636378 0.5 0.165302
-0.288285 -0.0640136 0.5 0.165496
-0.294613 -0.0643754 0.5 0.165589
-0.300863 -0.0647111 0.5 0.166097
-0.307004 -0.0650089 0.5 0.16758
-0.313327 -0.0652771 0.5 0.17003
-0.319845 -0.0655212 0.5 0.172794
-0.326263 -0.0657323 0.5 0.175651
-0.332578 -0.0659087 0.5 0.178725
-0.338786 -0.0660487 0.5 0.182024
-0.344885 -0.0661508 0.5 0.185584
-0.351121 -0.066215 0.5 0.18985
-0.357596 -0.0662389 0.5 0.19485
-0.364053 -0.0662174 0.5 0.200305
-0.370372 -0.0661484 0.5 0.206185
-0.37655 -0.0660305 0.5 0.212487
-0.382602 -0.0658618 0.5 0.219357
-0.388925 -0.0656228 0.5 0.22782
-0.395479 -0.0653072 0.5 0.237758
-0.401845 -0.0649267 0.5 0.248463
-0.408019 -0.0644808 0.5 0.260069
-0.414058 -0.0639631 0.5 0.273052
-0.420377 -0.0633227 0.5 0.289317
-0.426881 -0.0625531 0.5 0.308674
-0.433116 -0.0616939 0.5 0.329774
-0.439078 -0.0607466 0.5 0.353165
-0.445269 -0.0596051 0.5 0.382705
-0.451674 -0.0582403 0.5 0.418732
-0.457727 -0.0567413 0.5 0.458433
-0.463645 -0.0550329 0.5 0.504228
-0.469708 -0.0529719 0.5 0.558335
-0.47554 -0.0506191 0.5 0.614544
-0.481121 -0.0478748 0.5 0.668485
-0.486533 -0.0445602 0.5 0.707805
-0.49139 -0.0406721 0.5 0.716574
-0.495497 -0.0360174 0.5 0.675263
-0.498337 -0.0305615 0.5 0.548341
-0.499668 -0.0245218 0.5 0.337982
0.493989 -0.0255671 0.5 0.0158241
0.481661 -0.0256584 0.5 0.0512308
0.468743 -0.0250493 0.5 0.0777747
0.455903 -0.0243816 0.5 0.10114
0.443086 -0.0237407 0.5 0.117737
0.43032 -0.0231534 0.5 0.131548
0.417436 -0.0226209 0.5 0.142262
0.404557 -0.0221623 0.5 0.150715
0.392009 -0.0217848 0.5 0.158107
0.378964 -0.0214625 0.5 0.163996
0.366089 -0.0212219 0.5 0.168726
0.353553 -0.0210565 0.5 0.173067
0.340652 -0.0209519 0.5 0.176649
0.327676 -0.0209217 0.5 0.179291
0.31499 -0.0209615 0.5 0.181689
0.302291 -0.0210626 0.5 0.183796
0.289292 -0.0212313 0.5 0.185402
0.276404 -0.021465 0.5 0.186507
0.263762 -0.0217556 0.5 0.187466
0.251008 -0.0221051 0.5 0.188249
0.238056 -0.0225182 0.5 0.188758
0.225182 -0.0229871 0.5 0.188934
0.212496 -0.0235049 0.5 0.188893
0.199757 -0.0240769 0.5 0.18871
0.186884 -0.0247052 0.5 0.188444
0.174002 -0.0253829 0.5 0.188065
0.161252 -0.026102 0.5 0.187478
0.148534 -0.0268664 0.5 0.186742
0.135727 -0.0276797 0.5 0.185957
0.122864 -0.0285371 0.5 0.185195
0.110074 -0.0294292 0.5 0.184304
0.0973497 -0.0303577 0.5 0.183166
0.0845803 -0.0313282 0.5 0.181934
0.0717868 -0.032334 0.5 0.180789
0.0590033 -0.0333678 0.5 0.179759
0.0462363 -0.034431 0.5 0.178465
0.0334662 -0.0355272 0.5 0.176993
0.0206994 -0.0366506 0.5 0.175539
0.0079632 -0.0377921 0.5 0.174316
-0.0047917 -0.0389536 0.5 0.173106
-0.0175901 -0.0401414 0.5 0.171564
-0.0303693 -0.0413491 0.5 0.169942
-0.0430918 -0.0425653 0.5 0.168531
-0.0557889 -0.0437854 0.5 0.167425
-0.068574 -0.0450224 0.5 0.166043
-0.0814004 -0.0462753 0.5 0.164463
-0.0941401 -0.0475251 0.5 0.163009
-0.106769 -0.0487602 0.5 0.16197
-0.119516 -0.0499993 0.5 0.160977
-0.132401 -0.0512485 0.5 0.159657
-0.145178 -0.0524814 0.5 0.158416
-0.157806 -0.0536836 0.5 0.157631
-0.170519 -0.0548698 0.5 0.157198
-0.183408 -0.056051 0.5 0.156427
-0.196219 -0.0572023 0.5 0.155479
-0.208833 -0.058302 0.5 0.15488
-0.221521 -0.0593569 0.5 0.155697
-0.23434 -0.0603605 0.5 0.15717
-0.24704 -0.0613079 0.5 0.156812
-0.259692 -0.0622418 0.5 0.15696
