/*--------------------------------*- C++ -*----------------------------------*\
| =========                 |                                                 |
| \\      /  F ield         | OpenFOAM: The Open Source CFD Toolbox           |
|  \\    /   O peration     | Version:  3.0.1                                 |
|   \\  /    A nd           | Web:      www.OpenFOAM.org                      |
|    \\/     M anipulation  |                                                 |
\*---------------------------------------------------------------------------*/
FoamFile
{
    version     2.0;
    format      ascii;
    class       volScalarField;
    location    "500";
    object      nut;
}
// * * * * * * * * * * * * * * * * * * * * * * * * * * * * * * * * * * * * * //

dimensions      [0 2 -1 0 0 0 0];

internalField   nonuniform List<scalar> 
58000
(
0.000799323
0.00071543
0.000641174
0.000586127
0.000547103
0.000508927
0.000481298
0.000460622
0.000443892
0.000433244
0.000426962
0.00042245
0.000419236
0.000418796
0.000418502
0.000418419
0.000418636
0.000419779
0.000421472
0.000423243
0.00042518
0.000427056
0.000429073
0.000430878
0.000432438
0.000433794
0.000434875
0.000435704
0.000436404
0.000436691
0.000436695
0.000436396
0.000435594
0.000434286
0.000432032
0.000428757
0.000424912
0.000420925
0.000416963
0.000414307
0.00303511
0.0027317
0.00241194
0.00210223
0.00184365
0.00162206
0.00144756
0.00131545
0.00120819
0.00112612
0.00106528
0.00101638
0.000975659
0.000946999
0.000925368
0.000907404
0.000892559
0.00088218
0.000874746
0.000868052
0.000862499
0.000855208
0.000848452
0.000841899
0.00083452
0.000826304
0.000817457
0.000808649
0.000800807
0.000792696
0.000784071
0.000774973
0.000765536
0.00075681
0.000747099
0.000735902
0.000723633
0.000710885
0.000698108
0.000686819
0.00529753
0.00495233
0.00455676
0.00412523
0.00373578
0.00338468
0.0030837
0.00283818
0.00262636
0.0024557
0.00232478
0.00221627
0.00212199
0.00205148
0.00199686
0.00194974
0.00190783
0.0018753
0.00185104
0.00182998
0.00181029
0.0017894
0.00177114
0.00175466
0.00173788
0.00172032
0.00170202
0.00168379
0.00166764
0.00164992
0.00163001
0.00160835
0.00158512
0.00156113
0.00153583
0.00150851
0.00147995
0.00145053
0.00142131
0.00139496
0.00753016
0.00716927
0.00673664
0.00625651
0.00579483
0.00535411
0.00496353
0.00462871
0.00432644
0.00407172
0.00386831
0.00369495
0.00354085
0.00342081
0.00332534
0.0032415
0.00316587
0.0031039
0.00305523
0.0030132
0.00297211
0.00293103
0.00289526
0.00286354
0.00283239
0.0028005
0.00276794
0.00273445
0.00270258
0.00267004
0.00263567
0.00260011
0.00256178
0.00252192
0.00248041
0.00243625
0.00239066
0.00234368
0.00229659
0.00225196
0.00973198
0.00937103
0.00892755
0.00842403
0.00792784
0.00744078
0.00698596
0.00658793
0.00621696
0.00589204
0.0056232
0.00538742
0.00517278
0.00500006
0.00485934
0.00473363
0.00461884
0.00452224
0.00444374
0.004374
0.00430683
0.00424127
0.00418382
0.00413296
0.00408413
0.00403347
0.00398093
0.0039286
0.00387939
0.00383034
0.00377842
0.00372361
0.00366623
0.00360801
0.0035478
0.0034841
0.00341754
0.00335004
0.00328219
0.00321638
0.0119035
0.0115481
0.0111057
0.0105948
0.0100839
0.00956928
0.00908111
0.00863894
0.00821818
0.00784071
0.00751815
0.00722847
0.00695916
0.00673601
0.00655019
0.00638174
0.00622622
0.00609257
0.00598191
0.00588075
0.00578383
0.00569028
0.00560777
0.00553457
0.00546245
0.00538939
0.00531529
0.00524256
0.00517322
0.00510358
0.00503199
0.0049567
0.00487796
0.00479841
0.00471683
0.00463127
0.00454212
0.00445163
0.00436043
0.00427088
0.0140496
0.0137026
0.0132669
0.0127585
0.0122443
0.0117188
0.0112108
0.0107427
0.0102871
0.00986888
0.00950554
0.00917307
0.00885804
0.008589
0.00836079
0.00815124
0.00795652
0.00778505
0.00763898
0.00750533
0.00737743
0.0072543
0.00714493
0.00704548
0.00694842
0.00685101
0.00675331
0.00665644
0.00656512
0.00647324
0.00637816
0.00628046
0.00617865
0.00607491
0.00597047
0.00586165
0.00574855
0.00563341
0.00551702
0.0054018
0.0161744
0.0158369
0.0154108
0.0149095
0.014397
0.0138712
0.0133549
0.012873
0.0123953
0.0119494
0.0115531
0.0111845
0.0108309
0.0105252
0.0102606
0.0100135
0.00977949
0.0095713
0.0093916
0.00922621
0.00906731
0.00891426
0.00877515
0.00864862
0.00852617
0.00840271
0.00827837
0.00815631
0.00803955
0.00792335
0.00780454
0.00768172
0.00755562
0.00742714
0.00729804
0.0071643
0.00702633
0.00688463
0.00674127
0.00659872
0.0182815
0.0179542
0.0175391
0.0170482
0.0165424
0.0160205
0.0155026
0.0150141
0.0145239
0.0140587
0.0136405
0.0132454
0.0128599
0.0125214
0.0122244
0.0119439
0.0116756
0.0114338
0.0112222
0.0110268
0.0108371
0.0106524
0.0104836
0.0103298
0.0101793
0.0100285
0.00987771
0.00972841
0.00958628
0.00944479
0.00930043
0.0091516
0.00899919
0.00884443
0.00868928
0.00852926
0.00836443
0.0081953
0.00802403
0.0078531
0.020374
0.0200569
0.0196536
0.0191746
0.0186781
0.0181632
0.0176476
0.0171561
0.0166612
0.0161851
0.0157514
0.0153357
0.0149274
0.0145631
0.0142388
0.0139293
0.0136305
0.0133577
0.0131154
0.0128885
0.0126687
0.0124552
0.0122574
0.0120747
0.0118973
0.0117189
0.0115395
0.0113631
0.0111934
0.0110259
0.0108542
0.010679
0.0104987
0.0103174
0.0101357
0.00994883
0.00975625
0.00955876
0.00935865
0.00915842
0.0224542
0.0221473
0.0217558
0.0212895
0.0208039
0.020298
0.0197881
0.0192982
0.0188019
0.0183196
0.0178758
0.017446
0.0170199
0.0166332
0.0162851
0.0159503
0.0156247
0.0153243
0.0150545
0.0147997
0.0145521
0.0143088
0.0140824
0.0138727
0.0136669
0.0134616
0.0132546
0.0130503
0.0128531
0.0126585
0.0124598
0.0122572
0.0120489
0.0118401
0.0116312
0.0114174
0.011196
0.0109692
0.0107395
0.0105092
0.0245242
0.0242273
0.0238476
0.0233942
0.0229201
0.0224245
0.0219223
0.0214367
0.0209418
0.0204567
0.0200051
0.0195667
0.0191282
0.0187253
0.0183586
0.0180027
0.0176536
0.0173284
0.0170332
0.0167523
0.0164765
0.0162052
0.0159518
0.015714
0.015481
0.0152468
0.0150125
0.0147798
0.0145545
0.0143325
0.0141082
0.013879
0.0136428
0.0134061
0.0131692
0.0129273
0.0126771
0.012421
0.0121615
0.0119009
0.0265856
0.0262982
0.0259302
0.0254897
0.0250275
0.0245429
0.0240496
0.0235699
0.0230788
0.022594
0.0221388
0.0216936
0.0212445
0.0208301
0.0204488
0.0200749
0.0197045
0.0193571
0.0190392
0.0187357
0.0184352
0.0181375
0.017857
0.017592
0.0173308
0.0170684
0.0168061
0.0165476
0.0162958
0.0160467
0.0157956
0.0155393
0.015275
0.0150093
0.0147447
0.0144746
0.0141956
0.0139102
0.0136207
0.0133295
0.0286395
0.0283613
0.0280046
0.027577
0.0271269
0.0266536
0.0261698
0.0256973
0.0252115
0.0247292
0.0242729
0.023824
0.0233682
0.022944
0.0225498
0.0221602
0.0217742
0.0214084
0.0210696
0.0207426
0.0204189
0.0200962
0.0197876
0.0194968
0.0192117
0.0189237
0.0186344
0.0183486
0.0180712
0.0177953
0.0175161
0.0172332
0.0169414
0.0166474
0.0163541
0.0160559
0.0157482
0.0154333
0.0151138
0.0147919
0.0306864
0.0304173
0.0300718
0.0296569
0.0292189
0.0287571
0.0282833
0.0278186
0.0273391
0.0268607
0.0264052
0.0259547
0.0254947
0.025063
0.0246575
0.0242569
0.0238575
0.0234759
0.0231187
0.0227703
0.0224214
0.0220757
0.0217441
0.0214287
0.0211184
0.0208067
0.020492
0.0201799
0.019877
0.0195747
0.019268
0.018957
0.0186384
0.0183166
0.0179949
0.0176685
0.017332
0.0169877
0.0166381
0.0162854
0.0327267
0.0324668
0.0321324
0.0317301
0.0313043
0.0308539
0.0303905
0.029934
0.0294615
0.0289879
0.0285345
0.028084
0.0276219
0.027185
0.0267716
0.0263612
0.0259503
0.0255548
0.0251814
0.0248145
0.0244441
0.0240752
0.0237219
0.0233835
0.023049
0.0227138
0.0223746
0.022037
0.021709
0.0213807
0.0210473
0.0207096
0.0203636
0.0200139
0.019664
0.0193094
0.0189441
0.0185704
0.0181907
0.0178073
0.0347611
0.0345103
0.034187
0.0337973
0.0333835
0.0329446
0.0324916
0.0320436
0.0315785
0.0311105
0.0306601
0.0302107
0.0297479
0.0293076
0.0288882
0.0284698
0.0280491
0.0276415
0.0272537
0.0268703
0.0264811
0.0260917
0.0257174
0.0253567
0.024999
0.0246408
0.0242778
0.0239156
0.0235627
0.0232092
0.0228495
0.0224844
0.0221124
0.0217358
0.0213582
0.0209756
0.0205818
0.0201789
0.0197693
0.0193553
0.0367902
0.0365484
0.036236
0.0358589
0.0354573
0.0350297
0.0345869
0.0341476
0.0336901
0.0332282
0.0327816
0.0323341
0.0318718
0.0314293
0.0310052
0.0305804
0.0301513
0.0297331
0.0293325
0.0289342
0.0285281
0.02812
0.0277259
0.0273443
0.0269644
0.0265827
0.0261978
0.0258119
0.0254338
0.0250567
0.0246722
0.0242812
0.0238833
0.02348
0.023075
0.0226647
0.0222425
0.0218107
0.0213716
0.0209272
0.0388142
0.0385811
0.0382795
0.037915
0.0375266
0.0371093
0.0366766
0.036246
0.0357965
0.035341
0.0348986
0.0344537
0.0339927
0.0335492
0.0331215
0.0326914
0.0322552
0.0318277
0.0314156
0.0310038
0.0305823
0.0301568
0.0297431
0.0293428
0.0289425
0.0285392
0.0281328
0.0277243
0.0273226
0.0269219
0.026513
0.0260968
0.0256735
0.0252439
0.0248119
0.024374
0.0239239
0.0234637
0.0229954
0.0225211
0.0408332
0.0406086
0.0403174
0.0399649
0.0395882
0.0391823
0.0387603
0.038339
0.0378974
0.0374486
0.0370109
0.0365693
0.0361104
0.0356665
0.0352362
0.0348017
0.0343595
0.0339238
0.0335012
0.0330771
0.0326415
0.0322003
0.0317692
0.0313507
0.030931
0.0305072
0.03008
0.0296498
0.0292253
0.0288018
0.0283692
0.0279285
0.0274805
0.0270252
0.0265664
0.0261006
0.0256237
0.0251357
0.0246389
0.0241351
0.042847
0.0426308
0.0423499
0.0420093
0.0416437
0.0412489
0.0408379
0.0404271
0.0399929
0.0395508
0.0391183
0.0386805
0.0382243
0.0377809
0.0373488
0.0369108
0.0364632
0.0360201
0.0355878
0.0351524
0.0347039
0.0342482
0.0338011
0.0333654
0.0329272
0.0324838
0.0320365
0.0315855
0.0311394
0.0306936
0.0302383
0.0297742
0.029302
0.0288218
0.0283372
0.0278447
0.027341
0.0268257
0.0263006
0.0257678
0.0448554
0.0446473
0.0443768
0.0440488
0.0436931
0.0433089
0.0429084
0.0425069
0.0420813
0.0416469
0.0412204
0.040787
0.0403344
0.039892
0.039459
0.0390179
0.0385657
0.0381156
0.0376743
0.0372281
0.0367676
0.0362985
0.0358364
0.0353846
0.0349289
0.0344668
0.0339991
0.0335291
0.0330624
0.0325944
0.0321183
0.0316317
0.0311362
0.0306317
0.0301221
0.0296039
0.029074
0.0285318
0.027979
0.0274177
0.0468579
0.0466578
0.0463969
0.0460801
0.0457353
0.0453622
0.0449723
0.0445796
0.0441627
0.0437365
0.0433175
0.0428882
0.0424405
0.041999
0.0415667
0.0411228
0.0406662
0.0402096
0.0397594
0.0393027
0.0388309
0.0383494
0.0378734
0.0374063
0.0369344
0.0364549
0.0359688
0.0354801
0.0349937
0.0345049
0.0340078
0.0334992
0.0329808
0.032453
0.0319192
0.0313762
0.0308209
0.0302525
0.0296727
0.0290834
0.048854
0.0486619
0.0484107
0.0481043
0.0477703
0.0474085
0.0470301
0.0466454
0.0462368
0.0458184
0.0454059
0.0449816
0.0445382
0.044099
0.0436673
0.0432237
0.0427644
0.042301
0.0418421
0.0413741
0.0408923
0.0403993
0.0399101
0.0394286
0.0389417
0.0384462
0.037943
0.0374366
0.0369312
0.0364226
0.0359051
0.0353751
0.0348336
0.0342839
0.0337272
0.0331602
0.0325803
0.0319864
0.0313803
0.0307637
0.0508433
0.0506591
0.0504185
0.0501214
0.0497977
0.0494468
0.0490786
0.0487028
0.0483032
0.0478932
0.0474869
0.0470681
0.046629
0.0461923
0.0457608
0.0453161
0.0448545
0.0443878
0.0439218
0.0434434
0.042951
0.042447
0.0419451
0.0414489
0.0409493
0.0404391
0.0399199
0.0393966
0.0388733
0.0383458
0.0378088
0.0372584
0.0366956
0.0361242
0.0355451
0.0349548
0.034351
0.0337323
0.0331006
0.0324573
0.0528249
0.0526485
0.0524167
0.0521298
0.051817
0.051478
0.0511186
0.0507517
0.0503614
0.049961
0.0495606
0.0491483
0.0487128
0.0482798
0.0478479
0.0474017
0.0469369
0.0464654
0.0459925
0.0455061
0.0450048
0.0444907
0.0439774
0.0434683
0.0429552
0.0424313
0.0418973
0.0413584
0.0408182
0.0402728
0.0397172
0.0391475
0.0385646
0.0379723
0.0373715
0.0367587
0.0361317
0.0354891
0.0348324
0.0341633
0.0547979
0.0546301
0.054406
0.0541292
0.053827
0.0534983
0.0531488
0.0527912
0.0524105
0.0520184
0.0516248
0.051218
0.0507875
0.0503576
0.0499279
0.0494808
0.0490121
0.0485351
0.0480541
0.0475612
0.0470522
0.0465293
0.0460056
0.0454844
0.0449575
0.0444215
0.0438742
0.0433208
0.0427647
0.0422022
0.0416287
0.0410407
0.0404388
0.0398267
0.0392051
0.0385708
0.0379214
0.0372556
0.0365748
0.0358806
0.0567611
0.0566005
0.0563851
0.0561189
0.0558284
0.0555088
0.0551691
0.0548213
0.0544511
0.0540664
0.0536805
0.0532784
0.0528537
0.0524257
0.0519965
0.0515486
0.0510786
0.050597
0.0501087
0.0496087
0.0490923
0.0485614
0.0480284
0.0474966
0.0469579
0.0464099
0.04585
0.0452829
0.0447117
0.0441329
0.0435414
0.0429368
0.0423172
0.0416863
0.0410449
0.0403898
0.039719
0.0390308
0.0383267
0.0376083
0.0587139
0.0585603
0.0583538
0.0580982
0.0578177
0.0575084
0.057179
0.0568408
0.0564797
0.0561033
0.055724
0.0553276
0.0549078
0.054484
0.0540555
0.0536052
0.0531322
0.0526451
0.0521523
0.0516466
0.051124
0.050586
0.0500448
0.0495034
0.0489543
0.0483952
0.0478234
0.0472435
0.0466584
0.0460644
0.0454568
0.0448358
0.044199
0.0435502
0.0428899
0.0422149
0.0415234
0.0408137
0.0400873
0.0393454
0.0606558
0.0605091
0.0603119
0.0600674
0.0597958
0.0594967
0.0591782
0.0588505
0.0584974
0.05813
0.0577563
0.0573665
0.0569502
0.0565286
0.0561003
0.0556503
0.0551746
0.0546824
0.0541848
0.0536741
0.053146
0.0526019
0.0520534
0.0515036
0.0509451
0.050376
0.0497932
0.0492016
0.0486035
0.0479955
0.047373
0.0467365
0.0460834
0.0454175
0.044739
0.0440451
0.0433338
0.0426035
0.0418555
0.0410911
0.0625858
0.0624459
0.0622585
0.0620228
0.0617612
0.0614732
0.0611661
0.0608467
0.0605023
0.0601428
0.0597758
0.0593918
0.0589812
0.0585612
0.0581313
0.05768
0.0571998
0.0567055
0.0562046
0.0556899
0.0551573
0.0546081
0.0540534
0.0534962
0.0529293
0.0523511
0.0517585
0.051156
0.050546
0.049925
0.0492887
0.0486376
0.0479691
0.047287
0.0465913
0.0458794
0.0451493
0.0443993
0.0436307
0.0428447
0.0645029
0.064369
0.0641899
0.0639639
0.0637129
0.063437
0.0631394
0.0628295
0.0624952
0.0621427
0.061783
0.0614045
0.0609972
0.0605773
0.060147
0.0596917
0.0592103
0.0587144
0.0582111
0.0576933
0.0571571
0.0566037
0.0560438
0.0554801
0.054906
0.0543197
0.0537182
0.0531059
0.0524849
0.0518519
0.0512027
0.050538
0.0498552
0.0491577
0.0484459
0.0477169
0.0469689
0.0462001
0.0454119
0.0446053
0.0664062
0.0662782
0.0661069
0.0658908
0.0656504
0.065385
0.0650979
0.0647986
0.0644724
0.0641284
0.0637736
0.0634
0.0629948
0.0625766
0.0621446
0.0616878
0.0612056
0.0607087
0.0602036
0.0596836
0.0591447
0.058588
0.0580238
0.0574547
0.0568742
0.0562809
0.0556715
0.0550503
0.0544192
0.0537753
0.0531142
0.0524368
0.0517404
0.0510288
0.0503018
0.0495568
0.0487919
0.0480053
0.0471983
0.0463721
0.068295
0.0681725
0.0680091
0.0678031
0.067574
0.067318
0.0670418
0.0667508
0.0664341
0.0660968
0.0657478
0.0653765
0.0649741
0.0645557
0.0641233
0.0636664
0.0631844
0.0626874
0.0621814
0.06166
0.0611193
0.0605602
0.0599926
0.0594191
0.0588333
0.0582338
0.0576174
0.0569883
0.0563482
0.0556942
0.0550222
0.0543331
0.0536241
0.0528992
0.0521582
0.0513984
0.0506174
0.0498139
0.0489892
0.0481445
0.0701684
0.0700512
0.0698952
0.0696999
0.0694798
0.0692345
0.0689671
0.0686859
0.0683772
0.0680487
0.0677034
0.0673339
0.0669321
0.0665145
0.0660829
0.0656271
0.0651462
0.0646499
0.0641439
0.0636219
0.0630802
0.0625197
0.0619496
0.0613726
0.0607825
0.0601778
0.0595554
0.0589192
0.0582709
0.0576078
0.0569258
0.056226
0.0555053
0.0547682
0.0540142
0.0532416
0.0524449
0.0516251
0.0507836
0.0499216
0.0720256
0.0719132
0.0717638
0.0715771
0.0713674
0.0711309
0.0708737
0.0706006
0.0703014
0.069977
0.069636
0.069268
0.0688683
0.0684529
0.0680231
0.0675693
0.0670905
0.0665957
0.0660905
0.0655688
0.0650269
0.0644657
0.0638941
0.0633147
0.0627215
0.0621123
0.0614845
0.060842
0.0601865
0.0595152
0.0588242
0.0581146
0.0573832
0.0566346
0.0558684
0.0550828
0.0542721
0.0534375
0.0525805
0.0517025
0.0738659
0.0737579
0.0736142
0.0734349
0.0732337
0.0730072
0.0727583
0.0724951
0.0722012
0.0718831
0.0715445
0.0711793
0.070783
0.0703708
0.0699439
0.0694929
0.0690169
0.0685244
0.0680208
0.0675
0.0669586
0.0663975
0.0658253
0.0652444
0.0646502
0.0640365
0.0634038
0.062756
0.0620941
0.0614155
0.0607166
0.059998
0.0592568
0.0584976
0.0577199
0.0569221
0.0560984
0.0552502
0.054379
0.0534865
0.0756888
0.0755849
0.0754464
0.0752735
0.0750793
0.0748607
0.0746208
0.0743639
0.0740778
0.0737656
0.07343
0.0730684
0.0726765
0.0722684
0.0718451
0.0713976
0.0709251
0.0704357
0.0699342
0.069415
0.0688749
0.0683146
0.0677423
0.0671604
0.0665647
0.0659484
0.0653122
0.06466
0.0639927
0.063308
0.0626022
0.0618754
0.0611251
0.0603562
0.0595679
0.0587587
0.0579231
0.0570624
0.0561784
0.055273
0.0774938
0.0773936
0.0772599
0.0770928
0.0769047
0.0766927
0.0764595
0.0762088
0.0759291
0.0756229
0.0752924
0.0749358
0.0745491
0.0741457
0.0737266
0.0732833
0.0728149
0.072329
0.0718303
0.0713134
0.0707751
0.0702161
0.0696444
0.0690623
0.0684655
0.0678475
0.067209
0.0665533
0.0658816
0.0651915
0.0644808
0.0637459
0.0629872
0.0622093
0.0614113
0.0605918
0.0597453
0.0588734
0.0579778
0.0570611
0.0792802
0.0791836
0.0790545
0.0788927
0.0787102
0.0785041
0.0782769
0.0780319
0.0777582
0.0774579
0.077133
0.076782
0.076401
0.0760028
0.0755884
0.0751497
0.0746858
0.0742039
0.0737085
0.0731944
0.0726585
0.0721016
0.0715311
0.0709493
0.0703522
0.0697336
0.0690938
0.0684353
0.0677596
0.0670647
0.0663482
0.0656071
0.0648414
0.0640558
0.0632492
0.0624204
0.0615643
0.0606822
0.0597766
0.0588504
0.0810473
0.0809543
0.0808294
0.0806728
0.0804955
0.080295
0.0800734
0.0798339
0.0795659
0.0792715
0.0789524
0.0786071
0.0782321
0.0778394
0.0774301
0.0769964
0.0765373
0.0760599
0.0755682
0.0750574
0.0745245
0.0739702
0.0734016
0.0728209
0.0722243
0.0716059
0.0709667
0.0703053
0.069626
0.0689266
0.0682039
0.0674581
0.0666869
0.0658948
0.0650804
0.0642436
0.063379
0.0624882
0.0615739
0.0606401
0.0827944
0.0827048
0.0825841
0.0824323
0.0822602
0.082065
0.0818488
0.0816146
0.0813523
0.0810637
0.0807504
0.080411
0.0800421
0.0796553
0.0792513
0.0788228
0.078369
0.0778963
0.0774088
0.0769017
0.0763724
0.0758213
0.0752553
0.0746765
0.0740809
0.073463
0.0728239
0.0721613
0.0714797
0.070777
0.07005
0.0692989
0.0685235
0.0677259
0.066905
0.0660611
0.0651889
0.0642904
0.063369
0.0624295
0.0845208
0.0844344
0.0843177
0.0841708
0.0840036
0.0838136
0.0836027
0.0833737
0.083117
0.0828343
0.0825268
0.0821934
0.0818308
0.0814498
0.0810513
0.0806283
0.08018
0.0797125
0.0792295
0.0787266
0.0782013
0.077654
0.0770915
0.0765155
0.0759215
0.0753046
0.0746658
0.0740028
0.0733199
0.072615
0.0718853
0.0711307
0.0703514
0.0695488
0.0687221
0.0678717
0.066993
0.066088
0.0651609
0.0642179
0.0862255
0.0861423
0.0860296
0.0858873
0.085725
0.08554
0.0853345
0.0851106
0.0848595
0.0845826
0.084281
0.0839536
0.0835973
0.0832224
0.0828296
0.0824123
0.0819697
0.0815076
0.0810295
0.0805313
0.0800104
0.0794676
0.0789092
0.0783379
0.0777454
0.0771301
0.076492
0.0758291
0.0751456
0.0744397
0.0737085
0.0729516
0.0721701
0.0713624
0.0705304
0.0696745
0.0687902
0.06788
0.0669487
0.0660044
0.087908
0.0878278
0.0877189
0.0875812
0.0874236
0.0872436
0.0870432
0.0868246
0.086579
0.0863079
0.0860122
0.0856909
0.085341
0.0849723
0.0845854
0.084174
0.0837373
0.0832809
0.0828081
0.0823148
0.0817989
0.0812609
0.0807069
0.0801396
0.0795504
0.078939
0.0783014
0.0776391
0.0769559
0.07625
0.0755192
0.0747599
0.0739758
0.0731645
0.0723284
0.0714681
0.0705793
0.069665
0.0687312
0.0677879
0.0895672
0.08949
0.0893848
0.0892516
0.0890986
0.0889236
0.0887283
0.0885148
0.0882748
0.0880096
0.0877199
0.0874047
0.0870613
0.0866989
0.0863179
0.0859126
0.0854821
0.0850317
0.0845644
0.0840766
0.0835661
0.0830334
0.0824843
0.0819211
0.0813355
0.0807273
0.080092
0.0794314
0.0787494
0.0780445
0.0773138
0.0765536
0.0757676
0.0749538
0.0741148
0.0732512
0.072359
0.071442
0.0705073
0.0695675
0.0912025
0.0911282
0.0910266
0.0908977
0.0907493
0.0905792
0.090389
0.0901806
0.0899462
0.0896869
0.0894032
0.0890942
0.0887574
0.0884013
0.0880264
0.0876273
0.0872032
0.086759
0.0862977
0.0858157
0.085311
0.0847843
0.084241
0.0836822
0.0831005
0.0824957
0.0818632
0.0812051
0.0805252
0.0798232
0.0790923
0.0783323
0.0775446
0.0767288
0.0758885
0.0750227
0.0741282
0.0732097
0.0722757
0.0713417
0.0928132
0.0927417
0.0926436
0.092519
0.092375
0.0922097
0.0920245
0.0918212
0.0915924
0.0913391
0.0910615
0.0907588
0.0904285
0.0900788
0.0897101
0.0893174
0.0888999
0.0884622
0.0880071
0.0875313
0.087033
0.086513
0.0859772
0.0854224
0.0848451
0.0842437
0.0836144
0.0829591
0.0822817
0.0815818
0.0808522
0.0800929
0.0793045
0.078489
0.0776495
0.0767817
0.0758857
0.0749668
0.074035
0.0731094
0.0943985
0.0943297
0.0942351
0.0941145
0.093975
0.0938144
0.0936342
0.0934359
0.0932128
0.0929656
0.0926943
0.0923978
0.092074
0.0917307
0.0913683
0.0909821
0.0905713
0.0901404
0.0896919
0.0892227
0.0887312
0.0882181
0.0876888
0.0871398
0.0865688
0.0859706
0.0853447
0.0846927
0.0840182
0.0833207
0.0825931
0.0818353
0.0810478
0.0802329
0.0793939
0.0785258
0.0776297
0.0767117
0.0757839
0.074869
0.0959578
0.0958916
0.0958004
0.0956838
0.0955485
0.0953926
0.0952172
0.0950241
0.0948066
0.0945657
0.0943011
0.0940106
0.0936931
0.0933562
0.0930002
0.0926206
0.0922168
0.0917929
0.0913513
0.0908892
0.0904051
0.0898995
0.0893766
0.0888334
0.0882679
0.0876743
0.0870527
0.0864048
0.085734
0.0850394
0.0843145
0.0835588
0.0827731
0.0819596
0.0811215
0.0802541
0.0793591
0.0784433
0.077521
0.0766191
0.0974905
0.0974269
0.0973388
0.0972262
0.0970951
0.0969437
0.0967732
0.096585
0.0963732
0.0961386
0.0958818
0.0955963
0.095285
0.0949545
0.0946051
0.0942324
0.0938357
0.0934191
0.0929847
0.0925301
0.092054
0.0915575
0.0910404
0.0905032
0.0899429
0.0893544
0.0887377
0.0880946
0.0874284
0.0867374
0.0860154
0.0852626
0.0844793
0.0836679
0.0828315
0.0819658
0.0810727
0.0801603
0.0792448
0.0783582
0.0989961
0.0989349
0.09885
0.0987412
0.0986142
0.0984672
0.0983014
0.0981181
0.0979117
0.0976831
0.0974326
0.0971534
0.0968487
0.0965249
0.0961823
0.0958166
0.0954274
0.0950183
0.0945915
0.0941447
0.093677
0.0931883
0.0926785
0.0921491
0.0915934
0.09101
0.0903987
0.0897613
0.0891014
0.0884135
0.0876949
0.0869454
0.0861654
0.0853568
0.0845229
0.0836597
0.0827696
0.0818616
0.0809542
0.0800848
0.100474
0.100415
0.100333
0.100228
0.100105
0.0999625
0.0998014
0.099623
0.0994218
0.0991989
0.0989545
0.0986818
0.0983839
0.098067
0.0977313
0.0973729
0.0969913
0.0965899
0.0961709
0.0957325
0.0952745
0.0947927
0.0942901
0.0937672
0.0932174
0.0926399
0.092035
0.0914032
0.0907487
0.0900655
0.0893513
0.088606
0.08783
0.0870251
0.0861946
0.0853348
0.0844486
0.083546
0.0826478
0.0817973
0.101924
0.101867
0.101788
0.101687
0.101568
0.101429
0.101273
0.101099
0.100903
0.100686
0.100447
0.100181
0.0998903
0.0995804
0.0992517
0.0989007
0.0985268
0.0981334
0.0977225
0.0972924
0.0968428
0.0963692
0.0958754
0.095358
0.0948141
0.0942432
0.0936463
0.0930198
0.0923705
0.0916926
0.0909836
0.0902434
0.0894722
0.0886717
0.0878456
0.0869902
0.0861088
0.0852124
0.0843245
0.0834942
0.103345
0.103291
0.103215
0.103117
0.103001
0.102867
0.102715
0.102546
0.102355
0.102144
0.101911
0.101651
0.101368
0.101065
0.100743
0.1004
0.100034
0.0996485
0.099246
0.0988246
0.0983831
0.0979176
0.0974311
0.0969201
0.0963826
0.0958183
0.0952286
0.0946092
0.093966
0.093294
0.0925909
0.0918566
0.0910911
0.090296
0.0894752
0.0886251
0.0877492
0.0868598
0.0859829
0.0851741
0.104737
0.104685
0.104612
0.104518
0.104406
0.104276
0.104128
0.103964
0.103778
0.103572
0.103346
0.103092
0.102815
0.10252
0.102205
0.101869
0.101511
0.101135
0.100741
0.100329
0.0998951
0.0994385
0.0989578
0.0984531
0.0979222
0.0973649
0.0967825
0.0961716
0.0955345
0.0948689
0.0941724
0.0934447
0.0926858
0.0918973
0.0910826
0.0902385
0.0893691
0.0884873
0.0876221
0.0868356
0.106101
0.106051
0.10598
0.105889
0.105781
0.105655
0.105512
0.105352
0.105171
0.104971
0.10475
0.104504
0.104234
0.103945
0.103638
0.10331
0.10296
0.102592
0.102207
0.101803
0.101377
0.100928
0.100454
0.0999562
0.0994324
0.0988822
0.0983068
0.0977039
0.0970744
0.0964162
0.0957272
0.095007
0.0942553
0.0934749
0.0926673
0.09183
0.0909675
0.0900941
0.089241
0.0884773
0.107435
0.107387
0.107319
0.107231
0.107126
0.107004
0.106865
0.10671
0.106534
0.10634
0.106125
0.105885
0.105622
0.10534
0.10504
0.10472
0.104378
0.104019
0.103644
0.103247
0.10283
0.102386
0.10192
0.101429
0.100913
0.10037
0.099801
0.0992068
0.0985855
0.0979357
0.0972551
0.0965432
0.0958002
0.0950296
0.0942289
0.0933987
0.0925438
0.0916792
0.0908387
0.0900981
0.108739
0.108693
0.108628
0.108543
0.108442
0.108323
0.108189
0.108038
0.107867
0.107678
0.10747
0.107237
0.10698
0.106705
0.106412
0.106099
0.105767
0.105417
0.105049
0.104659
0.104249
0.103813
0.103354
0.102871
0.102363
0.101829
0.101268
0.100681
0.100069
0.0994273
0.0987555
0.0980527
0.0973189
0.0965576
0.0957656
0.0949436
0.0940971
0.0932418
0.0924142
0.0916968
0.110014
0.109969
0.109907
0.109825
0.109727
0.109613
0.109482
0.109335
0.10917
0.108986
0.108784
0.10856
0.108309
0.10804
0.107754
0.107449
0.107124
0.106783
0.106421
0.106039
0.105635
0.105208
0.104757
0.104283
0.103784
0.103258
0.102706
0.102127
0.101523
0.100891
0.100229
0.0995356
0.0988116
0.09806
0.0972773
0.0964644
0.0956269
0.0947814
0.0939667
0.0932724
0.111259
0.111216
0.111156
0.111077
0.110983
0.110872
0.110745
0.110603
0.110442
0.110264
0.110067
0.109849
0.109605
0.109344
0.109065
0.108767
0.108452
0.108117
0.107762
0.107387
0.10699
0.106571
0.10613
0.105665
0.105175
0.104658
0.104115
0.103545
0.10295
0.102328
0.101675
0.100991
0.100278
0.0995368
0.098764
0.0979607
0.0971328
0.0962974
0.0954957
0.094824
0.112474
0.112433
0.112375
0.112299
0.112208
0.112101
0.111978
0.11184
0.111684
0.111511
0.11132
0.111108
0.110871
0.110616
0.110344
0.110054
0.109746
0.109419
0.109072
0.108704
0.108315
0.107905
0.107473
0.107017
0.106536
0.106029
0.105495
0.104935
0.104349
0.103736
0.103093
0.102421
0.101719
0.100988
0.100226
0.0994325
0.0986145
0.0977895
0.0970006
0.096351
0.113659
0.113621
0.113565
0.113491
0.113403
0.1133
0.113181
0.113047
0.112896
0.112727
0.112542
0.112337
0.112106
0.111858
0.111593
0.11131
0.111009
0.110689
0.110351
0.109991
0.10961
0.109209
0.108785
0.108339
0.107867
0.10737
0.106847
0.106297
0.105721
0.105118
0.104486
0.103825
0.103136
0.102415
0.101662
0.100879
0.100071
0.099257
0.0984808
0.0978526
0.114815
0.114778
0.114724
0.114654
0.114569
0.114468
0.114353
0.114223
0.114077
0.113914
0.113734
0.113535
0.113311
0.11307
0.112812
0.112535
0.11224
0.111929
0.111599
0.111247
0.110875
0.110482
0.110067
0.10963
0.109169
0.108682
0.108169
0.107629
0.107064
0.106472
0.105851
0.105201
0.104524
0.103814
0.103073
0.1023
0.101503
0.1007
0.0999359
0.0993282
0.115942
0.115906
0.115854
0.115786
0.115704
0.115607
0.115496
0.11537
0.115228
0.11507
0.114896
0.114703
0.114487
0.114252
0.114001
0.113731
0.113443
0.113139
0.112817
0.112473
0.112109
0.111724
0.111319
0.110892
0.11044
0.109964
0.109461
0.108933
0.108379
0.107797
0.107188
0.10655
0.105884
0.105186
0.104456
0.103695
0.102909
0.102117
0.101365
0.100777
0.117039
0.117005
0.116955
0.11689
0.11681
0.116717
0.116609
0.116487
0.116349
0.116196
0.116027
0.11584
0.115633
0.115404
0.115159
0.114896
0.114615
0.114319
0.114004
0.11367
0.113314
0.112937
0.112541
0.112124
0.111682
0.111216
0.110725
0.110207
0.109664
0.109094
0.108497
0.107871
0.107218
0.106531
0.105813
0.105064
0.104289
0.103508
0.102769
0.102199
0.118107
0.118074
0.118026
0.117964
0.117887
0.117797
0.117692
0.117574
0.117441
0.117292
0.117129
0.116948
0.116747
0.116526
0.116288
0.116032
0.115758
0.115469
0.115162
0.114836
0.114489
0.114121
0.113734
0.113326
0.112895
0.112439
0.111958
0.111452
0.110921
0.110363
0.109777
0.109166
0.108523
0.107849
0.107143
0.106406
0.105643
0.104873
0.104146
0.103594
0.119146
0.119115
0.119069
0.119008
0.118935
0.118847
0.118746
0.118632
0.118503
0.118359
0.118201
0.118026
0.117832
0.117617
0.117386
0.117137
0.116871
0.116588
0.11629
0.115972
0.115634
0.115275
0.114896
0.114499
0.114078
0.113633
0.113163
0.112668
0.112148
0.111602
0.111029
0.11043
0.1098
0.109138
0.108445
0.10772
0.10697
0.106211
0.105496
0.10496
0.120157
0.120127
0.120083
0.120024
0.119954
0.119869
0.119772
0.119661
0.119536
0.119397
0.119243
0.119074
0.118886
0.11868
0.118455
0.118214
0.117954
0.117679
0.117388
0.117079
0.11675
0.1164
0.116031
0.115642
0.115231
0.114797
0.114338
0.113854
0.113346
0.112812
0.112251
0.111665
0.111048
0.1104
0.109719
0.109007
0.108269
0.107523
0.106819
0.106299
0.121139
0.12111
0.121068
0.121012
0.120944
0.120862
0.120768
0.120661
0.12054
0.120406
0.120257
0.120093
0.119912
0.119714
0.119496
0.119261
0.119009
0.118741
0.118458
0.118157
0.117836
0.117496
0.117136
0.116756
0.116355
0.115932
0.115484
0.115012
0.114515
0.113993
0.113445
0.112872
0.112268
0.111633
0.110965
0.110267
0.109542
0.108807
0.108114
0.107608
0.122094
0.122066
0.122026
0.121972
0.121906
0.121828
0.121737
0.121633
0.121516
0.121386
0.121242
0.121084
0.120909
0.120717
0.120506
0.120279
0.120034
0.119774
0.119498
0.119205
0.118894
0.118563
0.118212
0.117842
0.11745
0.117038
0.116601
0.116141
0.115656
0.115146
0.114611
0.114051
0.11346
0.112838
0.112184
0.111499
0.110786
0.110064
0.109382
0.10889
0.123021
0.122994
0.122956
0.122904
0.122841
0.122765
0.122677
0.122577
0.122464
0.122338
0.122199
0.122046
0.121877
0.121692
0.121488
0.121268
0.121031
0.120778
0.12051
0.120226
0.119923
0.119601
0.11926
0.1189
0.118518
0.118115
0.11769
0.117241
0.116768
0.116271
0.11575
0.115202
0.114624
0.114015
0.113374
0.112703
0.112003
0.111293
0.110622
0.110141
0.123921
0.123896
0.123858
0.123809
0.123748
0.123675
0.12359
0.123494
0.123385
0.123263
0.123128
0.12298
0.122817
0.122639
0.122443
0.12223
0.122001
0.121755
0.121495
0.121218
0.120924
0.120612
0.12028
0.119929
0.119558
0.119165
0.11875
0.118312
0.117852
0.117367
0.11686
0.116325
0.11576
0.115164
0.114537
0.113878
0.113192
0.112494
0.111833
0.111364
0.124794
0.12477
0.124734
0.124687
0.124628
0.124558
0.124477
0.124384
0.124278
0.124161
0.124031
0.123887
0.12373
0.123558
0.123371
0.123165
0.122942
0.122705
0.122452
0.122183
0.121897
0.121594
0.121272
0.120931
0.12057
0.120188
0.119783
0.119357
0.118908
0.118436
0.117942
0.117419
0.116867
0.116284
0.11567
0.115025
0.114352
0.113666
0.113016
0.112556
0.125641
0.125618
0.125584
0.125538
0.125482
0.125415
0.125336
0.125247
0.125145
0.125031
0.124906
0.124768
0.124616
0.12445
0.12427
0.124072
0.123857
0.123627
0.123381
0.12312
0.122843
0.122549