/*--------------------------------*- C++ -*----------------------------------*\
| =========                 |                                                 |
| \\      /  F ield         | OpenFOAM: The Open Source CFD Toolbox           |
|  \\    /   O peration     | Version:  3.0.1                                 |
|   \\  /    A nd           | Web:      www.OpenFOAM.org                      |
|    \\/     M anipulation  |                                                 |
\*---------------------------------------------------------------------------*/
FoamFile
{
    version     2.0;
    format      ascii;
    class       volScalarField;
    location    "500";
    object      p;
}
// * * * * * * * * * * * * * * * * * * * * * * * * * * * * * * * * * * * * * //

dimensions      [0 2 -2 0 0 0 0];

internalField   nonuniform List<scalar> 
58000
(
0.139405
-0.111024
-0.302025
-0.425888
-0.50103
-0.550025
-0.585224
-0.606044
-0.618905
-0.625301
-0.624742
-0.619793
-0.612429
-0.60272
-0.591431
-0.579964
-0.568897
-0.558166
-0.547632
-0.537587
-0.528059
-0.518914
-0.510018
-0.501307
-0.492963
-0.484954
-0.477091
-0.469341
-0.461665
-0.454115
-0.44673
-0.439285
-0.431708
-0.424204
-0.417177
-0.409173
-0.400756
-0.393114
-0.387361
-0.382691
0.337267
0.239168
0.138671
0.0261228
-0.0782133
-0.171061
-0.247742
-0.312773
-0.369812
-0.41456
-0.448673
-0.475356
-0.494803
-0.506361
-0.51321
-0.516012
-0.515368
-0.51213
-0.507523
-0.50207
-0.495828
-0.489077
-0.482083
-0.475228
-0.468342
-0.461341
-0.454279
-0.447245
-0.440414
-0.433853
-0.427361
-0.421021
-0.414862
-0.408802
-0.402625
-0.395761
-0.388448
-0.381534
-0.375758
-0.371508
0.23981
0.167768
0.0975357
0.0245751
-0.0493558
-0.117456
-0.182585
-0.238771
-0.289344
-0.333954
-0.369588
-0.398382
-0.422231
-0.439809
-0.451458
-0.459444
-0.46448
-0.466675
-0.466551
-0.464876
-0.462086
-0.458424
-0.454115
-0.449408
-0.444354
-0.439023
-0.433482
-0.427823
-0.42219
-0.416557
-0.410825
-0.405035
-0.399188
-0.39331
-0.387467
-0.381539
-0.37551
-0.369637
-0.364169
-0.359118
0.231125
0.188377
0.143132
0.091772
0.0361527
-0.0201572
-0.076708
-0.129303
-0.179697
-0.226157
-0.266
-0.300852
-0.331754
-0.35667
-0.375673
-0.390931
-0.402863
-0.411235
-0.416424
-0.419414
-0.420775
-0.420719
-0.419424
-0.417208
-0.414332
-0.410927
-0.407065
-0.402847
-0.398438
-0.393901
-0.389192
-0.384345
-0.37938
-0.374352
-0.369348
-0.364316
-0.359179
-0.354028
-0.34899
-0.344113
0.193888
0.1626
0.131051
0.0958074
0.0558445
0.0142477
-0.0305484
-0.0740584
-0.117307
-0.159501
-0.197374
-0.231729
-0.263576
-0.290969
-0.31297
-0.331738
-0.347587
-0.360038
-0.369069
-0.375646
-0.380422
-0.383553
-0.385115
-0.385346
-0.384648
-0.383225
-0.381155
-0.378539
-0.37552
-0.372177
-0.368549
-0.364676
-0.360581
-0.356332
-0.352021
-0.347644
-0.343158
-0.3386
-0.334023
-0.329446
0.171769
0.148017
0.124391
0.0981997
0.0682072
0.0366632
0.00150294
-0.0338807
-0.0701208
-0.106878
-0.141237
-0.173556
-0.204546
-0.232442
-0.255868
-0.276735
-0.295163
-0.31052
-0.322522
-0.332049
-0.339738
-0.345669
-0.349816
-0.352347
-0.353752
-0.354268
-0.353971
-0.352949
-0.351325
-0.349218
-0.346726
-0.343896
-0.340757
-0.337376
-0.333848
-0.330201
-0.326405
-0.322473
-0.318434
-0.314311
0.150796
0.131736
0.113201
0.0929966
0.0697675
0.0454322
0.0176938
-0.0107815
-0.0404789
-0.0715587
-0.101518
-0.130446
-0.158936
-0.185613
-0.208756
-0.23004
-0.249466
-0.266353
-0.280188
-0.291707
-0.301509
-0.309593
-0.315852
-0.320341
-0.323593
-0.325859
-0.3272
-0.327687
-0.327414
-0.326516
-0.325143
-0.323345
-0.321155
-0.318638
-0.315882
-0.312939
-0.309796
-0.306463
-0.302958
-0.299304
0.133805
0.117992
0.102833
0.0865475
0.0678911
0.0485095
0.0261978
0.00304583
-0.0213376
-0.0474075
-0.0731247
-0.0984562
-0.123903
-0.148493
-0.170396
-0.191055
-0.210391
-0.227752
-0.242485
-0.25517
-0.266343
-0.275929
-0.283766
-0.289803
-0.294572
-0.298318
-0.301079
-0.302906
-0.303863
-0.304088
-0.30377
-0.302956
-0.30168
-0.300003
-0.298007
-0.295759
-0.293263
-0.290527
-0.287566
-0.284407
0.119255
0.105803
0.0930427
0.0795051
0.0640742
0.0482013
0.0298636
0.0107545
-0.00944933
-0.031355
-0.0533214
-0.0752711
-0.0976427
-0.119812
-0.139974
-0.159376
-0.177901
-0.194975
-0.209873
-0.22303
-0.234915
-0.2454
-0.254297
-0.261454
-0.267376
-0.272289
-0.27621
-0.279164
-0.281186
-0.282407
-0.283036
-0.283119
-0.282685
-0.281793
-0.280511
-0.278921
-0.277041
-0.274875
-0.272443
-0.269769
0.106844
0.0951811
0.0841953
0.0726567
0.0595806
0.0462551
0.0308653
0.0148176
-0.0021546
-0.020709
-0.0395232
-0.0585094
-0.078056
-0.0978084
-0.116074
-0.133931
-0.151252
-0.167555
-0.182106
-0.19522
-0.207305
-0.218197
-0.227699
-0.235583
-0.242308
-0.24808
-0.252888
-0.256739
-0.25964
-0.261702
-0.263149
-0.264017
-0.264334
-0.264149
-0.263523
-0.262541
-0.261235
-0.259607
-0.257676
-0.255468
0.0961349
0.085876
0.0762536
0.0662275
0.0549306
0.0435118
0.0303564
0.0166558
0.0021901
-0.0136908
-0.0299097
-0.0463848
-0.0634594
-0.0809699
-0.0973774
-0.113618
-0.129567
-0.144836
-0.15872
-0.171444
-0.183361
-0.194283
-0.204025
-0.212303
-0.219526
-0.225872
-0.231313
-0.235836
-0.239425
-0.242167
-0.24429
-0.245822
-0.246785
-0.24722
-0.247175
-0.246741
-0.245954
-0.244819
-0.243353
-0.24158
0.0868331
0.0777049
0.0691621
0.0603168
0.0504045
0.040453
0.0290297
0.0171597
0.00466029
-0.00908352
-0.0231819
-0.0375618
-0.0525247
-0.0680376
-0.0827265
-0.0974067
-0.111962
-0.126088
-0.139131
-0.15125
-0.16275
-0.173439
-0.183146
-0.191553
-0.199022
-0.205702
-0.211551
-0.216541
-0.220639
-0.223906
-0.226567
-0.22864
-0.230139
-0.2311
-0.231558
-0.231602
-0.231277
-0.230582
-0.229538
-0.228162
0.0786987
0.0705014
0.0628354
0.0549369
0.0461306
0.0373377
0.0272873
0.0168714
0.00593666
-0.00608393
-0.0184463
-0.0310865
-0.0442678
-0.0580398
-0.0711866
-0.0844216
-0.0976416
-0.110614
-0.122745
-0.134144
-0.145078
-0.155359
-0.164835
-0.173173
-0.180689
-0.187511
-0.193582
-0.198865
-0.203312
-0.206964
-0.210032
-0.212527
-0.214457
-0.21585
-0.216731
-0.217184
-0.217257
-0.21695
-0.21628
-0.21526
0.0715437
0.0641267
0.0571879
0.0500659
0.0421629
0.0343058
0.0253658
0.0161255
0.00645522
-0.00416057
-0.0150915
-0.0262824
-0.0379637
-0.0502341
-0.0620213
-0.0739522
-0.0859375
-0.0978021
-0.109013
-0.119649
-0.129939
-0.139706
-0.14882
-0.15695
-0.164367
-0.171181
-0.177326
-0.182759
-0.18742
-0.191331
-0.19469
-0.197499
-0.199762
-0.201499
-0.202724
-0.203519
-0.203929
-0.203955
-0.203609
-0.202903
0.0652181
0.0584649
0.0521395
0.0456666
0.0385156
0.0314295
0.0234042
0.0151307
0.00649811
-0.00295845
-0.0126991
-0.0226761
-0.0330912
-0.0440702
-0.0546697
-0.0654417
-0.0763082
-0.0871381
-0.0974601
-0.107329
-0.116948
-0.126148
-0.134824
-0.142654
-0.149869
-0.156563
-0.162668
-0.168134
-0.172897
-0.176962
-0.180511
-0.183541
-0.186049
-0.188049
-0.189548
-0.190618
-0.191308
-0.191612
-0.191545
-0.191108
0.0596002
0.0534187
0.0476186
0.041697
0.0351822
0.0287425
0.021483
0.014017
0.00624863
-0.00223939
-0.0109805
-0.0199333
-0.0292744
-0.0391422
-0.0487071
-0.0584559
-0.0683198
-0.0782019
-0.0876869
-0.096815
-0.105765
-0.114383
-0.12258
-0.130051
-0.136995
-0.143491
-0.14947
-0.154881
-0.159658
-0.16379
-0.167446
-0.170615
-0.173292
-0.175484
-0.177191
-0.178479
-0.179392
-0.179926
-0.180091
-0.179883
0.0545893
0.0489059
0.0435614
0.038115
0.032146
0.0262565
0.0196476
0.0128655
0.00582656
-0.00184261
-0.00973584
-0.0178173
-0.0262415
-0.0351505
-0.0438135
-0.0526606
-0.0616314
-0.0706549
-0.0793659
-0.0877943
-0.0960986
-0.104139
-0.111842
-0.118923
-0.125553
-0.131798
-0.137591
-0.142883
-0.147603
-0.151734
-0.155428
-0.15867
-0.161451
-0.163774
-0.165632
-0.167084
-0.168172
-0.16889
-0.169244
-0.169227
0.0501032
0.0448577
0.0399128
0.0348808
0.0293859
0.0239708
0.0179217
0.011726
0.00531054
-0.0016586
-0.00882556
-0.0161593
-0.0237951
-0.0318728
-0.0397474
-0.0478001
-0.0559773
-0.0642276
-0.0722301
-0.0800071
-0.0876999
-0.0951819
-0.102394
-0.109071
-0.115363
-0.121325
-0.126893
-0.132017
-0.136631
-0.140708
-0.144385
-0.147646
-0.150477
-0.152879
-0.154838
-0.156408
-0.157627
-0.158487
-0.158993
-0.159132
0.0460735
0.0412163
0.0366249
0.0319579
0.0268793
0.0218784
0.0163161
0.0106289
0.00475216
-0.00161242
-0.00815148
-0.0148381
-0.021791
-0.0291442
-0.0363273
-0.0436787
-0.0511508
-0.0587067
-0.0660641
-0.0732403
-0.0803611
-0.0873126
-0.0940475
-0.100322
-0.106266
-0.111928
-0.117244
-0.12217
-0.12664
-0.130623
-0.134241
-0.137478
-0.140316
-0.142752
-0.144772
-0.146419
-0.147731
-0.148697
-0.149322
-0.149584
0.0424433
0.0379326
0.0336568
0.0293141
0.0246041
0.0199684
0.0148337
0.00959169
0.00418507
-0.00165257
-0.0076441
-0.0137662
-0.0201232
-0.0268413
-0.0334152
-0.0401458
-0.0469906
-0.0539233
-0.0606955
-0.0673205
-0.0739106
-0.0803636
-0.0866423
-0.0925231
-0.0981204
-0.103474
-0.108527
-0.113233
-0.117534
-0.121393
-0.124922
-0.1281
-0.13091
-0.133346
-0.135391
-0.137083
-0.138455
-0.139496
-0.140208
-0.140567
0.0391642
0.0349648
0.0309726
0.0269204
0.0225393
0.0182279
0.0134721
0.00862349
0.00363098
-0.00174349
-0.00725384
-0.0128799
-0.0187133
-0.0248717
-0.0309064
-0.0370854
-0.0433707
-0.0497439
-0.0559856
-0.0621067
-0.068207
-0.0741955
-0.0800425
-0.0855446
-0.0908021
-0.0958494
-0.100632
-0.105109
-0.109224
-0.112939
-0.116354
-0.119448
-0.122203
-0.124611
-0.126652
-0.128361
-0.129766
-0.130856
-0.13163
-0.132061
0.0361951
0.0322768
0.028541
0.0247509
0.0206654
0.0166446
0.0122267
0.00772821
0.00310333
-0.0018609
-0.0069454
-0.0121325
-0.0175029
-0.0231653
-0.0287204
-0.0344075
-0.0401923
-0.0460622
-0.0518232
-0.057484
-0.063134
-0.0686913
-0.0741331
-0.0792745
-0.0842037
-0.0889505
-0.0934642
-0.0977071
-0.101627
-0.105185
-0.10847
-0.111461
-0.11414
-0.116498
-0.118513
-0.120216
-0.121631
-0.122747
-0.123562
-0.124044
0.0335008
0.0298377
0.0263349
0.0227827
0.0189646
0.0152058
0.0110915
0.00690652
0.00261002
-0.00198849
-0.00669351
-0.0114896
-0.0164482
-0.0216684
-0.0267949
-0.0320414
-0.0373771
-0.0427934
-0.0481184
-0.0533592
-0.0585954
-0.0637542
-0.0688175
-0.0736179
-0.0782332
-0.0826892
-0.0869395
-0.090949
-0.0946693
-0.0980621
-0.101207
-0.104082
-0.10667
-0.10896
-0.110933
-0.112611
-0.114018
-0.115141
-0.115978
-0.116493
0.0310512
0.0276207
0.0243308
0.0209953
0.0174202
0.0138992
0.0100592
0.00615699
0.00215579
-0.00211471
-0.00647957
-0.0109255
-0.0155154
-0.02034
-0.0250818
-0.0299321
-0.0348631
-0.0398694
-0.0447984
-0.0496558
-0.0545125
-0.0593034
-0.0640145
-0.0684944
-0.0728117
-0.0769892
-0.0809841
-0.0847641
-0.0882847
-0.0915085
-0.0945062
-0.0972574
-0.0997435
-0.101954
-0.10387
-0.105509
-0.106893
-0.108008
-0.108852
-0.109386
0.0288199
0.0256023
0.0225076
0.0193709
0.0160176
0.0127134
0.0091225
0.00547675
0.00174272
-0.00223195
-0.00629034
-0.0104209
-0.0146794
-0.0191481
-0.0235434
-0.0280364
-0.0326016
-0.0372361
-0.0418044
-0.0463112
-0.0508199
-0.0552716
-0.0596557
-0.0638355
-0.0678717
-0.071784
-0.0755334
-0.0790904
-0.0824141
-0.0854684
-0.0883162
-0.0909378
-0.0933152
-0.095438
-0.0972861
-0.0988757
-0.100225
-0.10132
-0.102159
-0.102699
0.0267841
0.0237619
0.0208472
0.0178933
0.0147435
0.0116378
0.00827433
0.00486199
0.00137074
-0.00233577
-0.00611665
-0.0099619
-0.0139208
-0.0180678
-0.0221494
-0.0263189
-0.030553
-0.0348499
-0.039089
-0.0432746
-0.0474635
-0.0516026
-0.0556836
-0.0595834
-0.0633552
-0.0670164
-0.0705315
-0.0738736
-0.0770052
-0.0798918
-0.0825895
-0.0850792
-0.0873437
-0.0893727
-0.0911463
-0.0926779
-0.093983
-0.0950495
-0.0958721
-0.0964088
0.0249239
0.0220818
0.0193334
0.0165483
0.0135857
0.0106628
0.00750761
0.00430877
0.0010391
-0.00242327
-0.00595179
-0.00953772
-0.0132247
-0.0170801
-0.0208766
-0.0247519
-0.0286847
-0.0326743
-0.0366129
-0.0405042
-0.0443991
-0.0482499
-0.05205
-0.0556884
-0.0592124
-0.0626369
-0.0659295
-0.0690658
-0.0720117
-0.0747343
-0.0772835
-0.0796411
-0.0817909
-0.0837225
-0.0854167
-0.0868845
-0.0881392
-0.0891691
-0.0899684
-0.090494
0.0232217
0.0205461
0.0179519
0.0153231
0.0125335
0.0097793
0.0068156
0.00381278
0.000746265
-0.00249295
-0.00579105
-0.00914036
-0.0125797
-0.0161696
-0.0197064
-0.0233134
-0.0269714
-0.0306802
-0.0343436
-0.0379649
-0.0415894
-0.0451741
-0.0487139
-0.0521089
-0.0554009
-0.0586028
-0.061685
-0.0646253
-0.0673926
-0.0699561
-0.07236
-0.0745872
-0.0766221
-0.0784547
-0.0800666
-0.0814665
-0.0826662
-0.0836541
-0.0844241
-0.0849325
0.0216623
0.0191408
0.0166898
0.0142063
0.011577
0.00897909
0.00619205
0.00336978
0.000490184
-0.00254432
-0.00563125
-0.00876392
-0.0119767
-0.0153241
-0.0186233
-0.0219851
-0.0253918
-0.0288436
-0.0322546
-0.0356276
-0.0390031
-0.0423421
-0.0456409
-0.0488092
-0.0518843
-0.0548772
-0.0577609
-0.0605152
-0.0631118
-0.0655218
-0.0677848
-0.0698844
-0.0718058
-0.0735393
-0.0750674
-0.0763972
-0.0775386
-0.0784807
-0.079217
-0.0797036
0.0202318
0.0178534
0.0155359
0.0131877
0.0107073
0.00825459
0.00563099
0.00297566
0.00026861
-0.00257752
-0.00547027
-0.00840392
-0.011409
-0.0145342
-0.0176154
-0.0207523
-0.0239285
-0.0271445
-0.0303236
-0.033468
-0.0366138
-0.039726
-0.0428014
-0.0457587
-0.0486311
-0.051428
-0.0541249
-0.0567033
-0.0591374
-0.0614003
-0.0635273
-0.065503
-0.0673131
-0.0689485
-0.0703928
-0.0716513
-0.0727326
-0.0736264
-0.074326
-0.0747873
0.0189181
0.0166729
0.01448
0.0122583
0.00991654
0.00759897
0.00512705
0.0026265
7.91385e-05
-0.00259313
-0.0053069
-0.00805717
-0.010871
-0.0137921
-0.0166729
-0.0196029
-0.0225672
-0.0255665
-0.0285321
-0.0314656
-0.0343994
-0.0373017
-0.04017
-0.042931
-0.0456141
-0.0482276
-0.0507489
-0.0531612
-0.0554411
-0.0575637
-0.0595602
-0.061416
-0.0631181
-0.0646574
-0.0660186
-0.0672058
-0.0682263
-0.0690703
-0.0697311
-0.0701648
0.0177107
0.0155896
0.0135133
0.01141
0.00919741
0.00700606
0.00467524
0.00231851
-8.0662e-05
-0.00259207
-0.0051404
-0.00772123
-0.0103586
-0.0130915
-0.0157874
-0.0185268
-0.021296
-0.0240959
-0.0268644
-0.0296032
-0.0323409
-0.035049
-0.0377252
-0.0403034
-0.0428099
-0.0452517
-0.0476082
-0.0498641
-0.0519981
-0.053987
-0.0558587
-0.0575996
-0.0591972
-0.060643
-0.0619227
-0.0630393
-0.0639991
-0.0647926
-0.0654134
-0.0658179
0.0165998
0.0145946
0.0126277
0.0106352
0.00854341
0.00647016
0.00427086
0.00204805
-0.000213225
-0.00257537
-0.00497036
-0.00739421
-0.00986824
-0.0124273
-0.0149525
-0.0175159
-0.0201053
-0.022721
-0.0253075
-0.0278661
-0.0304224
-0.0329504
-0.0354482
-0.0378563
-0.0401979
-0.0424791
-0.0446811
-0.0467899
-0.048786
-0.0506482
-0.052401
-0.0540318
-0.0555289
-0.0568843
-0.0580847
-0.0591321
-0.0600318
-0.060775
-0.0613552
-0.0617296
0.0155768
0.0136801
0.0118157
0.00992733
0.0079487
0.00598614
0.00390963
0.00181184
-0.000320821
-0.00254416
-0.00479668
-0.00707481
-0.00939747
-0.0117957
-0.0141628
-0.0165635
-0.0189865
-0.021432
-0.0238501
-0.0262418
-0.0286299
-0.0309908
-0.033323
-0.0355726
-0.0377604
-0.0398914
-0.0419486
-0.0439191
-0.0457852
-0.0475273
-0.0491672
-0.0506931
-0.052094
-0.0533625
-0.0544859
-0.0554659
-0.0563068
-0.0570003
-0.0575401
-0.0578839
0.0146341
0.0128389
0.011071
0.00928046
0.00740797
0.00554937
0.00358775
0.00160683
-0.000405718
-0.0024997
-0.00461955
-0.00676211
-0.00894419
-0.0111934
-0.0134139
-0.0156638
-0.0179327
-0.0202207
-0.0224827
-0.0247195
-0.0269515
-0.0291574
-0.0313355
-0.0334374
-0.0354815
-0.0374722
-0.0393938
-0.0412344
-0.0429781
-0.0446067
-0.0461395
-0.0475656
-0.0488748
-0.05006
-0.0511094
-0.0520242
-0.0528078
-0.0534526
-0.0539523
-0.0542657
0.0137646
0.0120647
0.0103876
0.00868925
0.00691648
0.00515564
0.00330168
0.00143019
-0.000469956
-0.00244318
-0.00443928
-0.00645551
-0.00850684
-0.0106178
-0.0127021
-0.0148121
-0.016938
-0.0190798
-0.0211969
-0.0232899
-0.0253769
-0.0274386
-0.0294735
-0.0314377
-0.0333477
-0.0352072
-0.0370017
-0.0387205
-0.040349
-0.0418705
-0.043302
-0.0446335
-0.0458554
-0.046961
-0.0479395
-0.0487913
-0.0495195
-0.0501168
-0.0505774
-0.0508606
0.0129622
0.0113518
0.00976027
0.00814884
0.00646983
0.00480105
0.00304811
0.00127929
-0.00051545
-0.0023758
-0.00425639
-0.0061548
-0.00808437
-0.0100668
-0.0120244
-0.0140042
-0.0159972
-0.0180033
-0.0199857
-0.021945
-0.0238972
-0.0258247
-0.0277262
-0.029562
-0.0313467
-0.0330835
-0.0347591
-0.0363637
-0.0378838
-0.0393043
-0.0406402
-0.0418822
-0.0430212
-0.044051
-0.0449616
-0.0457531
-0.0464279
-0.0469793
-0.0474017
-0.0476555
0.012221
0.0106949
0.00918424
0.00765484
0.00606407
0.00448206
0.00282403
0.00115164
-0.000544185
-0.0022989
-0.00407151
-0.0058599
-0.00767587
-0.00953855
-0.0113781
-0.0132367
-0.0151061
-0.0169858
-0.0188429
-0.0206776
-0.0225043
-0.024307
-0.0260841
-0.0278001
-0.0294678
-0.0310898
-0.0326541
-0.0341516
-0.03557
-0.0368954
-0.0381411
-0.0392984
-0.0403589
-0.0413167
-0.0421627
-0.0428965
-0.04352
-0.0440273
-0.0444128
-0.0446378
0.0115359
0.0100893
0.00865505
0.00720319
0.00569561
0.00419546
0.00262669
0.00104493
-0.000558041
-0.00221379
-0.00388533
-0.00557081
-0.00728062
-0.00903162
-0.010761
-0.0125065
-0.0142607
-0.0160228
-0.0177631
-0.0194818
-0.0211915
-0.0228777
-0.024539
-0.0261431
-0.0277014
-0.0292161
-0.0306762
-0.0320733
-0.0333963
-0.0346322
-0.0357928
-0.0368701
-0.0378563
-0.0387459
-0.0395305
-0.0402093
-0.040784
-0.0412489
-0.0415988
-0.0417959
0.0109023
0.00953064
0.00816867
0.00679019
0.0053611
0.00393828
0.00245351
0.000956993
-0.000558697
-0.00212166
-0.0036985
-0.00528756
-0.00689803
-0.0085447
-0.0101711
-0.011811
-0.0134577
-0.0151101
-0.0167415
-0.0183518
-0.0199525
-0.0215301
-0.0230832
-0.0245828
-0.0260389
-0.0274532
-0.0288158
-0.0301189
-0.0313523
-0.0325041
-0.0335847
-0.0345865
-0.0355026
-0.0363277
-0.0370539
-0.0376804
-0.0382085
-0.038633
-0.0389487
-0.0391189
0.0103159
0.00901496
0.00772145
0.00641244
0.00505749
0.00370776
0.00230213
0.000885877
-0.000547688
-0.00202356
-0.00351154
-0.00501017
-0.00652756
-0.00807667
-0.00960667
-0.011148
-0.0126941
-0.0142441
-0.0157738
-0.0172831
-0.0187819
-0.0202581
-0.0217104
-0.0231123
-0.0244728
-0.0257933
-0.0270645
-0.0282795
-0.0294288
-0.0305015
-0.0315068
-0.0324377
-0.0332876
-0.0340517
-0.0347228
-0.0352998
-0.0357836
-0.0361694
-0.0364525
-0.0365968
0.00977285
0.0085387
0.00731006
0.00606687
0.00478198
0.00350141
0.00217041
0.000829819
-0.000526388
-0.0019204
-0.00332493
-0.00473867
-0.00616875
-0.00762653
-0.00906628
-0.0105152
-0.0119674
-0.0134218
-0.0148564
-0.0162712
-0.0176749
-0.0190564
-0.0204144
-0.021725
-0.0229961
-0.0242288
-0.0254146
-0.026547
-0.0276174
-0.0286159
-0.0295504
-0.0304146
-0.0312022
-0.0319089
-0.0325277
-0.0330578
-0.0334996
-0.0338487
-0.0341006
-0.0342202
0.00926959
0.00809862
0.00693147
0.0057507
0.00453208
0.00331698
0.00205643
0.000787214
-0.000496053
-0.00181306
-0.00313914
-0.00447309
-0.00582122
-0.00719341
-0.00854855
-0.00991099
-0.0112753
-0.0126402
-0.013986
-0.0153123
-0.0166271
-0.0179201
-0.0191899
-0.0204152
-0.0216027
-0.0227532
-0.023859
-0.024914
-0.0259105
-0.0268393
-0.0277074
-0.0285089
-0.029238
-0.0298904
-0.0304601
-0.0309457
-0.0313478
-0.0316622
-0.0318843
-0.0319803
0.00880295
0.00769176
0.00658294
0.00546138
0.00430548
0.00315242
0.0019584
0.000756597
-0.000457835
-0.00170233
-0.00295459
-0.0042135
-0.00548463
-0.00677655
-0.0080523
-0.00933366
-0.0106156
-0.0118968
-0.0131594
-0.014403
-0.0156346
-0.0168449
-0.0180324
-0.0191777
-0.0202869
-0.0213606
-0.0223915
-0.0233741
-0.0243013
-0.0251647
-0.0259705
-0.026713
-0.027387
-0.0279885
-0.0285118
-0.0289556
-0.0293201
-0.0296016
-0.0297956
-0.0298692
0.00837001
0.00731542
0.00626197
0.0051966
0.00410011
0.00300586
0.00187474
0.000736629
-0.000412792
-0.00158896
-0.00277169
-0.00395998
-0.0051587
-0.00637528
-0.00757649
-0.00878177
-0.0099865
-0.0111893
-0.012374
-0.0135402
-0.0146939
-0.0158268
-0.0169372
-0.0180078
-0.0190437
-0.0200454
-0.0210063
-0.0219211
-0.0227834
-0.0235855
-0.0243328
-0.0250201
-0.0256423
-0.0261959
-0.0266756
-0.02708
-0.0274091
-0.0276596
-0.027827
-0.0278792
0.00796813
0.00696714
0.00596627
0.00495426
0.00391406
0.0028756
0.00180397
0.000726089
-0.000361893
-0.00147361
-0.00259082
-0.00371259
-0.00484318
-0.00598899
-0.00712016
-0.00825403
-0.00938634
-0.0105157
-0.0116274
-0.012721
-0.0138018
-0.0148622
-0.0159006
-0.0169012
-0.0178685
-0.0188028
-0.0196981
-0.0205494
-0.021351
-0.0220956
-0.0227881
-0.0234235
-0.0239973
-0.0245059
-0.0249446
-0.025312
-0.0256079
-0.0258291
-0.0259715
-0.0260036
0.00759487
0.00664468
0.00569375
0.00473244
0.00374559
0.00276008
0.00174475
0.00072386
-0.000306024
-0.00135693
-0.00241235
-0.00347142
-0.00453786
-0.00561715
-0.00668246
-0.00774926
-0.0088136
-0.00987403
-0.0109173
-0.0119429
-0.0129554
-0.013948
-0.0149189
-0.0158539
-0.016757
-0.0176283
-0.0184622
-0.0192541
-0.0199987
-0.0206896
-0.0213307
-0.0219175
-0.0224458
-0.0229123
-0.0233126
-0.0236453
-0.02391
-0.0241038
-0.0242226
-0.024236
0.00724799
0.00634597
0.00544251
0.00452938
0.00359314
0.00265789
0.00169587
0.00072892
-0.000245995
-0.00123948
-0.0022366
-0.00323654
-0.00424253
-0.00525927
-0.00626261
-0.00726637
-0.00826689
-0.00926267
-0.0102417
-0.0112035
-0.0121521
-0.013081
-0.0139888
-0.0148624
-0.0157054
-0.0165177
-0.0172941
-0.0180305
-0.0187218
-0.0193623
-0.0199552
-0.0204966
-0.0209823
-0.0214094
-0.0217738
-0.022074
-0.0223095
-0.0224776
-0.0225745
-0.0225704
0.00692545
0.00606914
0.0052108
0.00434347
0.00345524
0.00256772
0.0016562
0.000740341
-0.000182545
-0.00112177
-0.00206385
-0.00300801
-0.00395703
-0.00491488
-0.00585991
-0.00680439
-0.00774493
-0.00868004
-0.00959884
-0.0105008
-0.0113894
-0.0122587
-0.0131073
-0.0139235
-0.0147101
-0.0154672
-0.0161898
-0.0168741
-0.0175157
-0.018109
-0.0186569
-0.0191558
-0.0196017
-0.019992
-0.0203227
-0.0205926
-0.0208009
-0.0209451
-0.0210215
-0.0210013
0.00662538
0.00581244
0.00499701
0.00417323
0.00333057
0.00248839
0.00162473
0.000757271
-0.000116347
-0.0010043
-0.00189439
-0.00278588
-0.00368116
-0.00458359
-0.00547369
-0.0063624
-0.00724657
-0.0081247
-0.00898693
-0.00983271
-0.010665
-0.0114786
-0.0122717
-0.013034
-0.0137679
-0.0144732
-0.0151454
-0.0157812
-0.0163761
-0.0169253
-0.0174312
-0.0178903
-0.0182991
-0.018655
-0.0189544
-0.019196
-0.019379
-0.0195011
-0.0195585
-0.0195236
0.00634605
0.00557429
0.00479967
0.00401731
0.00321792
0.00241883
0.00160053
0.000778939
-4.80151e-05
-0.000887488
-0.00172845
-0.00257018
-0.00341476
-0.00426498
-0.00510335
-0.00593957
-0.00677073
-0.00759533
-0.00840444
-0.00919747
-0.00997701
-0.0107382
-0.0114794
-0.0121912
-0.0128757
-0.0135325
-0.0141577
-0.0147479
-0.0152993
-0.0158073
-0.0162739
-0.0166959
-0.0170701
-0.0173939
-0.0176642
-0.0178795
-0.0180391
-0.0181406
-0.0181807
-0.0181325
0.00608589
0.00535322
0.00461743
0.00387449
0.00311618
0.00235804
0.00158276
0.000804648
2.19073e-05
-0.000771713
-0.00156622
-0.00236095
-0.00315768
-0.0039587
-0.00474832
-0.00553511
-0.00631641
-0.0070907
-0.0078499
-0.0085934
-0.00932343
-0.0100355
-0.0107281
-0.0113925
-0.0120307
-0.0126422
-0.0132233
-0.013771
-0.0142816
-0.0147511
-0.015181
-0.0155684
-0.0159103
-0.0162044
-0.0164476
-0.0166385
-0.0167765
-0.0168592
-0.0168834
-0.0168233
0.00584341
0.0051479
0.00444906
0.00374361
0.00302432
0.00230511
0.00157063
0.00083376
9.29271e-05
-0.000657309
-0.00140791
-0.00215821
-0.00290975
-0.0036644
-0.00440806
-0.00514831
-0.00588268
-0.00660967
-0.00732197
-0.00801895
-0.00870249
-0.00936849
-0.0100154
-0.0106356
-0.0112304
-0.0117994
-0.0123393
-0.0128472
-0.0133198
-0.0137532
-0.0141489
-0.0145041
-0.014816
-0.0150823
-0.0153004
-0.0154689
-0.0155869
-0.0156525
-0.0156623
-0.0155918
0.0056173
0.00495708
0.0042934
0.00362363
0.00294143
0.00225923
0.00156346
0.000865694
0.00016459
-0.000544587
-0.00125365
-0.00196198
-0.00267084
-0.00338176
-0.00408207
-0.00477846
-0.00546866
-0.00615118
-0.00681939
-0.00747265
-0.00811255
-0.00873532
-0.0093395
-0.00991804
-0.0104722
-0.0110016
-0.0115029
-0.0119736
-0.0124106
-0.0128104
-0.0131742
-0.0134993
-0.0137833
-0.014024
-0.0142189
-0.0143667
-0.0144665
-0.0145164
-0.0145133
-0.0144338
0.0054063
0.00477962
0.00414941
0.0035136
0.00286663
0.00221962
0.00156058
0.000899922
0.000236486
-0.000433823
-0.0011036
-0.00177223
-0.00244078
-0.00311045
-0.00376987
-0.00442494
-0.00507354
-0.00571422
-0.00634097
-0.00695314
-0.00755206
-0.00813427
-0.00869835
-0.0092379
-0.00975402
-0.0102462
-0.0107114
-0.0111474
-0.0115512
-0.0119196
-0.0122536
-0.0125509
-0.0128089
-0.0130259
-0.0131993
-0.013328
-0.0134112
-0.0134469
-0.0134324
-0.0133452
0.00520926
0.00461448
0.00401613
0.00341264
0.00279914
0.0021856
0.00156142
0.000935962
0.000308248
-0.00032526
-0.000957859
-0.00158895
-0.00221942
-0.00285017
-0.003471
-0.00408712
-0.00469654
-0.00529786
-0.00588562
-0.00645916
-0.00701958
-0.00756372
-0.00809018
-0.00859318
-0.00907365
-0.00953099
-0.00996252
-0.010366
-0.0107388
-0.0110779
-0.0113842
-0.0116555
-0.0118895
-0.0120845
-0.0122381
-0.0123494
-0.0124173
-0.0124404
-0.0124157
-0.0123223
0.00502514
0.00446067
0.00389265
0.00331992
0.00273825
0.00215653
0.00156544
0.000973382
0.000379546
-0.000219113
-0.000816528
-0.00141211
-0.00200658
-0.00260061
-0.00318504
-0.00376443
-0.00433694
-0.00490122
-0.00545229
-0.00598951
-0.00651376
-0.00702215
-0.00751332
-0.00798206
-0.00842911
-0.00885388
-0.00925386
-0.00962697
-0.00997079
-0.0102827
-0.0105632
-0.0108103
-0.011022
-0.0111966
-0.0113321
-0.0114273
-0.0114815
-0.0114931
-0.0114596
-0.011361
0.00485295
0.00431732
0.00377817
0.00323472
0.00268329
0.00213183
0.00157214
0.00101179
0.000450083
-0.00011557
-0.00067968
-0.00124167
-0.00180212
-0.00236149
-0.00291155
-0.0034563
-0.00399405
-0.00452345
-0.00504001
-0.00554306
-0.00603332
-0.00650814
-0.00696621
-0.00740283
-0.00781857
-0.00821283
-0.00858331
-0.00892806
-0.00924486
-0.00953126
-0.00978777
-0.0100125
-0.0102035
-0.0103592
-0.010478
-0.0105585
-0.0106002
-0.0106016
-0.0105604
-0.0104578
0.00469181
0.00418358
0.00367191
0.00315633
0.00263365
0.00211097
0.00158109
0.00105082
0.000519596
-1.47948e-05
-0.000547376
-0.00107759
-0.00160587
-0.00213252
-0.00265013
-0.00316222
-0.0036672
-0.00416377
-0.00464784
-0.00511875
-0.00557707
-0.00602036
-0.00644738
-0.00685387
-0.00724027
-0.00760597
-0.00794886
-0.00826711
-0.00855868
-0.00882135
-0.00905548
-0.00925933
-0.00943115
-0.00956953
-0.0096728
-0.00973997
-0.00977035
-0.00976263
-0.00971472
-0.00960899
0.00454086
0.00405871
0.0035732
0.00308414
0.00258878
0.00209346
0.00159189
0.00109016
0.000587849
8.30713e-05
-0.000419662
-0.000919799
-0.00141767
-0.00191341
-0.0024004
-0.00288168
-0.00335577
-0.00382142
-0.0042749
-0.00471558
-0.00514389
-0.00555758
-0.00595547
-0.0063337
-0.0066926
-0.00703155
-0.00734861
-0.0076421
-0.00791011
-0.00815063
-0.00836392
-0.00854838
-0.00870241
-0.00882471
-0.00891376
-0.00896864
-0.00898873
-0.00897286
-0.00891914
-0.00881104
0.00439936
0.00394198
0.00348137
0.00301755
0.00254816
0.00207886
0.00160415
0.00112953
0.000654636
0.000177911
-0.000296564
-0.000768238
-0.00123735
-0.00170392
-0.00216199
-0.0026142
-0.00305917
-0.00349569
-0.00392038
-0.00433262
-0.00473272
-0.00511862
-0.00548917
-0.00584089
-0.00617399
-0.00648789
-0.00678079
-0.00705112
-0.00729713
-0.00751699
-0.00771086
-0.00787728
-0.00801479
-0.00812219
-0.00819812
-0.00824173
-0.00825245
-0.00822924
-0.00817044
-0.00806055
0.00426656
0.00383275
0.00339584
0.00295604
0.00251133
0.00206677
0.00161756
0.00116865
0.000719772
0.000269624
-0.000178093
-0.000622834
-0.00106475
-0.00150377
-0.00193453
-0.00235931
-0.00277683
-0.00318592
-0.00358351
-0.00396899
-0.00434257
-0.00470236
-0.00504725
-0.0053741
-0.00568303
-0.00597346
-0.00624373
-0.0064924
-0.00671786
-0.00691841
-0.00709418
-0.00724381
-0.00736596
-0.00745955
-0.00752334
-0.00755656
-0.00755871
-0.00752887
-0.00746559
-0.00735429
0.00414182
0.00373042
0.00331605
0.0028991
0.00247784
0.00205681
0.00163181
0.0012073
0.000783094
0.000358124
-6.42573e-05
-0.000483512
-0.00089972
-0.00131271
-0.00171768
-0.00211659
-0.00250823
-0.00289147
-0.00326355
-0.00362385
-0.00397251
-0.00430777
-0.00462857
-0.00493207
-0.00521833
-0.00548676
-0.00573585
-0.00596425
-0.00617049
-0.00635302
-0.00651189
-0.00664587
-0.00675373
-0.00683448
-0.00688701
-0.00691063
-0.0069049
-0.006869
-0.00680167
-0.00668921
0.0040245
0.00363441
0.0032415
0.00284629
0.00244732
0.00204863
0.00164662
0.00124526
0.000844457
0.000443338
4.49449e-05
-0.000350192
-0.000742088
-0.0011305
-0.00151111
-0.00188561
-0.00225284
-0.00261176
-0.00295981
-0.00329641
-0.00362163
-0.00393384
-0.00423203
-0.00451362
-0.00477861
-0.00502643
-0.00525568
-0.00546511
-0.00565337
-0.00581904
-0.00596213
-0.00608151
-0.00617604
-0.00624484
-0.0062869
-0.0063016
-0.00628855
-0.00624705
-0.00617599
-0.00606246
0.00391405
0.00354421
0.00317171
0.00279717
0.00241938
0.00204194
0.00166173
0.00128234
0.000903734
0.000525207
0.000149524
-0.000222792
-0.000591701
-0.000956901
-0.00131451
-0.00166597
-0.0020102
-0.00234619
-0.00267162
-0.00298593
-0.00328911
-0.00357965
-0.00385661
-0.00411763
-0.00436267
-0.00459117
-0.00480183
-0.00499349
-0.00516492
-0.00531482
-0.00544316
-0.00554889
-0.00563098
-0.00568862
-0.0057209
-0.00572727
-0.00570739
-0.00566064
-0.00558607
-0.00547144
0.00380992
0.00345933
0.00310625
0.00275137
0.00239369
0.00203644
0.00167693
0.00131838
0.000960814
0.000603684
0.0002495
-0.000101226
-0.0004484
-0.000791674
-0.00112757
-0.00145728
-0.00177983
-0.00209423
-0.00239837
-0.00269169
-0.00297413
-0.00324432
-0.00350133
-0.00374305
-0.00396937
-0.00417974
-0.00437298
-0.00454801
-0.00470368
-0.00483881
-0.00495334
-0.0050463
-0.00511676
-0.00516395
-0.00518707
-0.00518563
-0.00515932
-0.00510759
-0.00502963
-0.00491379
0.00371163
0.00337933
0.00304471
0.00270853
0.00236996
0.00203188
0.001692
0.00135322
0.0010156
0.000678736
0.000344899
1.45991e-05
-0.000312027
-0.000634595
-0.000949982
-0.00125919
-0.00156129
-0.00185535
-0.00213944
-0.00241301
-0.00267596
-0.00292702
-0.0031653
-0.00338889
-0.00359763
-0.00379102
-0.00396792
-0.00412735
-0.00426826
-0.00438957
-0.00449116
-0.00457216
-0.00463171
-0.0046691
-0.00468363
-0.00467482
-0.00464241
-0.00458592
-0.00450461
-0.0043874
0.0036187
0.0033038
0.00298672
0.00266831
0.00234788
0.00202802
0.00170676
0.00138672
0.00106802