/*--------------------------------*- C++ -*----------------------------------*\
| =========                 |                                                 |
| \\      /  F ield         | OpenFOAM: The Open Source CFD Toolbox           |
|  \\    /   O peration     | Version:  3.0.1                                 |
|   \\  /    A nd           | Web:      www.OpenFOAM.org                      |
|    \\/     M anipulation  |                                                 |
\*---------------------------------------------------------------------------*/
FoamFile
{
    version     2.0;
    format      ascii;
    class       surfaceScalarField;
    location    "500";
    object      phi;
}
// * * * * * * * * * * * * * * * * * * * * * * * * * * * * * * * * * * * * * //

dimensions      [0 3 -1 0 0 0 0];

internalField   nonuniform List<scalar> 
115520
(
0.0117458
-0.00182238
-0.00992338
0.013111
-0.00136523
0.0136106
-0.000499631
0.0136466
-3.59923e-05
0.0134068
0.000239827
0.0129899
0.000416884
0.0125695
0.000420403
0.0121759
0.000393578
0.0118032
0.00037271
0.0115313
0.000271913
0.0113569
0.000174358
0.0112404
0.000116495
0.0111795
6.09944e-05
0.0112101
-3.06539e-05
0.0112821
-7.19558e-05
0.0113794
-9.73831e-05
0.011494
-0.000114584
0.0116332
-0.000139203
0.0117878
-0.00015453
0.0119416
-0.000153801
0.0120903
-0.000148773
0.0122309
-0.000140556
0.0123714
-0.000140486
0.0125043
-0.00013289
0.0126238
-0.000119526
0.0127289
-0.000105107
0.0128187
-8.97873e-05
0.0128955
-7.67723e-05
0.0129623
-6.68332e-05
0.0130114
-4.90566e-05
0.0130419
-3.05238e-05
0.0130525
-1.06551e-05
0.0130414
1.11363e-05
0.0130067
3.46631e-05
0.012928
7.87493e-05
0.0128116
0.000116412
0.012676
0.000135617
0.0125381
0.000137869
0.0124163
0.000121847
9.25696e-05
0.0123237
0.00723433
-0.00298892
-0.00606779
0.00828591
-0.00241681
0.00927364
-0.00148736
0.0101663
-0.000928669
0.0109472
-0.000541038
0.0115946
-0.000230507
0.0121125
-9.75726e-05
0.0125155
-9.42658e-06
0.012804
8.42098e-05
0.0130304
4.56042e-05
0.0132125
-7.79494e-06
0.013342
-1.29954e-05
0.0134318
-2.87869e-05
0.0135461
-0.000144957
0.0136528
-0.000178706
0.0137515
-0.000196021
0.013845
-0.000208137
0.0139564
-0.000250599
0.0140787
-0.000276803
0.0141964
-0.000271537
0.0143091
-0.000261471
0.0144155
-0.000246967
0.0145302
-0.000255126
0.0146412
-0.000243912
0.0147414
-0.000219745
0.0148299
-0.000193567
0.0149056
-0.000165528
0.0149719
-0.000143098
0.0150331
-0.000127958
0.0150791
-9.50758e-05
0.0151101
-6.15814e-05
0.0151272
-2.76626e-05
0.0151317
6.55645e-06
0.0151279
3.84717e-05
0.0151134
9.32688e-05
0.0150835
0.000146326
0.0150387
0.000180395
0.0149801
0.000196467
0.0149088
0.000193139
0.000170277
0.0148311
0.00676862
-0.0040419
-0.00571565
0.00774278
-0.00339098
0.00864666
-0.00239123
0.00948923
-0.00177124
0.0102102
-0.00126205
0.0108884
-0.000908692
0.0114633
-0.000672491
0.0119672
-0.00051325
0.0124102
-0.000358866
0.0127834
-0.000327589
0.0131036
-0.000327908
0.0133794
-0.000288827
0.0136154
-0.000264766
0.0138352
-0.0003648
0.0140353
-0.000378789
0.0142178
-0.0003785
0.0143864
-0.000376794
0.014556
-0.000420129
0.0147244
-0.000445243
0.0148835
-0.000430615
0.0150335
-0.000411471
0.0151741
-0.000387546
0.0153151
-0.000396195
0.0154486
-0.000377397
0.0155696
-0.000340719
0.0156775
-0.000301447
0.0157716
-0.000259619
0.0158541
-0.000225598
0.0159275
-0.000201399
0.0159844
-0.000151975
0.0160244
-0.000101591
0.0160471
-5.03305e-05
0.016052
1.6513e-06
0.0160414
4.90793e-05
0.0160158
0.000118804
0.0159727
0.000189496
0.0159139
0.000239135
0.0158412
0.000269222
0.0157542
0.000280104
0.000271852
0.0156526
0.00609607
-0.00493133
-0.00520664
0.00697123
-0.00426613
0.0078274
-0.0032474
0.00866345
-0.00260729
0.00942429
-0.00202289
0.0101529
-0.00163733
0.0108031
-0.00132265
0.0113968
-0.00110693
0.0119406
-0.000902656
0.0124222
-0.000809246
0.0128531
-0.000758834
0.0132408
-0.00067645
0.0135858
-0.000609853
0.0138996
-0.000678523
0.0141849
-0.000664143
0.0144438
-0.00063742
0.0146793
-0.000612243
0.0149024
-0.000643252
0.0151145
-0.000657367
0.0153114
-0.000627487
0.015494
-0.000594009
0.0156627
-0.000556304
0.0158262
-0.000559731
0.0159791
-0.000530215
0.0161175
-0.000479129
0.0162411
-0.000425072
0.0163495
-0.000368041
0.0164448
-0.000320869
0.0165293
-0.000285877
0.0165967
-0.000219353
0.0166466
-0.000151512
0.0166787
-8.24172e-05
0.0166925
-1.21791e-05
0.0166897
5.18769e-05
0.0166705
0.00013802
0.0166316
0.000228378
0.016574
0.000296742
0.0164987
0.000344473
0.0164064
0.000372425
0.000381304
0.016297
0.00578923
-0.00575132
-0.00496924
0.00660656
-0.00508346
0.00741828
-0.00405912
0.0082307
-0.00341972
0.00899395
-0.00278614
0.00974673
-0.00239011
0.0104367
-0.00201264
0.0110822
-0.00175246
0.0116907
-0.0015111
0.0122404
-0.001359
0.0127404
-0.00125875
0.0132006
-0.00113671
0.0136202
-0.00102943
0.0139987
-0.00105699
0.0143456
-0.00101104
0.0146632
-0.000954999
0.0149534
-0.000902499
0.0152229
-0.00091277
0.0154745
-0.000908979
0.0157069
-0.000859836
0.0159211
-0.000808171
0.0161179
-0.00075311
0.0163039
-0.000745801
0.016476
-0.00070225
0.0166315
-0.000634664
0.0167704
-0.000563968
0.0168924
-0.000490086
0.0169993
-0.000427768
0.017093
-0.000379576
0.0171685
-0.000294853
0.0172255
-0.000208492
0.0172637
-0.000120573
0.0172827
-3.1208e-05
0.0172841
5.05208e-05
0.0172681
0.000153941
0.0172321
0.000264407
0.0171763
0.00035256
0.0171011
0.000419692
0.0170066
0.000466854
0.000495049
0.0168929
0.0055728
-0.00652991
-0.00479421
0.00635364
-0.0058643
0.00713442
-0.0048399
0.00792222
-0.00420752
0.00867824
-0.00354216
0.0094351
-0.00314696
0.0101464
-0.00272394
0.0108256
-0.0024316
0.0114786
-0.00216412
0.0120811
-0.00196153
0.0126385
-0.0018162
0.0131606
-0.00165875
0.0136447
-0.00151354
0.0140833
-0.00149557
0.0144884
-0.00141621
0.0148622
-0.00132873
0.0152056
-0.0012459
0.0155218
-0.001229
0.0158145
-0.00120165
0.0160842
-0.00112955
0.016332
-0.00105599
0.0165588
-0.00097995
0.0167698
-0.000956739
0.0169633
-0.000895738
0.0171378
-0.000809221
0.0172935
-0.000719652
0.0174303
-0.000626877
0.0175497
-0.000547199
0.0176536
-0.00048346
0.017738
-0.000379211
0.0178026
-0.000273087
0.0178472
-0.000165179
0.0178716
-5.56046e-05
0.0178771
4.50182e-05
0.0178641
0.00016689
0.0178302
0.000298324
0.0177754
0.00040733
0.0177
0.000495143
0.017604
0.000562872
0.00061164
0.0174874
0.00544465
-0.00728924
-0.00468531
0.00620693
-0.00662659
0.00697027
-0.00560324
0.00774165
-0.0049789
0.00849026
-0.00429078
0.00924458
-0.00390128
0.00996511
-0.00344448
0.0106627
-0.00312921
0.011343
-0.00284439
0.0119813
-0.00259985
0.0125806
-0.00241554
0.0131499
-0.002228
0.0136856
-0.00204927
0.0141749
-0.00198484
0.014631
-0.00187229
0.0150553
-0.00175309
0.0154482
-0.00163873
0.0158094
-0.00159028
0.016143
-0.00153517
0.0164507
-0.00143733
0.0167336
-0.00133887
0.0169924
-0.00123875
0.0172305
-0.00119484
0.0174479
-0.00111306
0.0176438
-0.00100514
0.0178185
-0.000894347
0.0179721
-0.000780478
0.0181059
-0.000681008
0.0182215
-0.000599107
0.0183161
-0.00047375
0.0183893
-0.000346371
0.0184412
-0.000217066
0.0184716
-8.59612e-05
0.0184816
3.5029e-05
0.0184717
0.000176781
0.0184398
0.000330227
0.0183859
0.000461205
0.0183102
0.0005709
0.0182126
0.000660423
0.000730921
0.0180933
0.00536952
-0.00804216
-0.0046166
0.00612517
-0.00738224
0.00688178
-0.00635985
0.00764546
-0.00574258
0.00839141
-0.00503673
0.00914404
-0.0046539
0.00987053
-0.00417097
0.01058
-0.0038387
0.0112778
-0.00354216
0.0119411
-0.00326314
0.0125713
-0.00304573
0.0131763
-0.00283303
0.0137524
-0.00262535
0.0142837
-0.00251615
0.0147833
-0.00237185
0.015252
-0.00222186
0.0156893
-0.00207606
0.0160927
-0.00199363
0.0164656
-0.00190804
0.0168108
-0.00178256
0.0171289
-0.00165695
0.0174204
-0.00153027
0.0176871
-0.00146158
0.0179301
-0.001356
0.0181492
-0.00122431
0.0183449
-0.00109
0.0185172
-0.000952799
0.0186673
-0.000831057
0.0187965
-0.000728317
0.0189028
-0.000580121
0.0189863
-0.000429836
0.0190468
-0.000277559
0.0190843
-0.000123424
0.0190997
1.9567e-05
0.0190937
0.000182787
0.0190645
0.000359472
0.019012
0.000513673
0.0189364
0.000646518
0.0188377
0.000759089
0.000852506
0.0187161
0.00533426
-0.00879755
-0.00457887
0.00609185
-0.00813983
0.00684989
-0.00711789
0.00761349
-0.00650618
0.00836219
-0.00578543
0.00911687
-0.00540857
0.00985012
-0.00490423
0.0105698
-0.00455839
0.0112809
-0.00425328
0.0119632
-0.00394539
0.0126171
-0.00369967
0.0132498
-0.00346571
0.0138575
-0.00323308
0.0144233
-0.00308195
0.0149594
-0.00290791
0.0154662
-0.00272865
0.0159424
-0.00255234
0.0163838
-0.00243501
0.0167933
-0.00231748
0.017174
-0.00216325
0.017526
-0.00200901
0.0178497
-0.00185398
0.0181454
-0.00175723
0.0184147
-0.0016253
0.0186581
-0.00146775
0.0188759
-0.00130779
0.0190683
-0.00114515
0.0192359
-0.000998742
0.0193802
-0.000872535
0.0194997
-0.000699707
0.0195947
-0.000524784
0.019665
-0.000347865
0.0197107
-0.000169087
0.0197326
-2.34868e-06
0.0197313
0.000184047
0.0197055
0.000385319
0.0196551
0.000564095
0.0195801
0.000721438
0.0194808
0.000858382
0.00097599
0.0193574
0.00532897
-0.00956172
-0.0045648
0.00609473
-0.0089056
0.00686038
-0.00788354
0.00763004
-0.00727584
0.00838649
-0.00654189
0.00914753
-0.00616962
0.00989009
-0.00564678
0.0106209
-0.00528923
0.0113446
-0.00497699
0.0120435
-0.0046442
0.0127175
-0.00437371
0.013373
-0.00412122
0.0140066
-0.00386667
0.0146014
-0.00367672
0.0151684
-0.00347494
0.0157078
-0.00326804
0.016218
-0.0030625
0.0166933
-0.00291032
0.0171361
-0.00276027
0.0175496
-0.00257677
0.0179336
-0.00239304
0.0182881
-0.00220844
0.018612
-0.00208117
0.0189075
-0.00192083
0.0191754
-0.00173562
0.0194158
-0.00154816
0.0196288
-0.00135817
0.019815
-0.00118488
0.0199751
-0.00103273
0.0201089
-0.000833497
0.0202163
-0.000632194
0.0202974
-0.000428928
0.0203522
-0.000223847
0.0203814
-3.15621e-05
0.0203857
0.000179777
0.0203639
0.00040707
0.0203161
0.000611854
0.0202425
0.000795115
0.020143
0.000957825
0.00110097
0.020018
0.00534749
-0.0103394
-0.0045698
0.0061262
-0.00968431
0.00690424
-0.00866158
0.00768489
-0.00805649
0.00845338
-0.00731037
0.00922491
-0.00694115
0.00997976
-0.00640164
0.0107238
-0.00603325
0.0114611
-0.0057143
0.0121762
-0.00535929
0.012869
-0.00506649
0.013545
-0.00479721
0.0142011
-0.00452282
0.0148213
-0.00429691
0.0154154
-0.00406906
0.0159833
-0.00383597
0.0165233
-0.00360243
0.0170289
-0.00341598
0.017502
-0.00323339
0.0179457
-0.00302046
0.0183594
-0.00280674
0.0187428
-0.00259181
0.0190938
-0.00243224
0.0194149
-0.00224187
0.0197068
-0.00202753
0.0199696
-0.00181095
0.0202033
-0.00159193
0.0204082
-0.00138978
0.0205849
-0.00120941
0.0207335
-0.000982058
0.020854
-0.000752674
0.0209464
-0.000521373
0.0210109
-0.000288324
0.021048
-6.86884e-05
0.0210584
0.000169384
0.0210413
0.000424185
0.0209967
0.000656459
0.0209247
0.000867112
0.0208255
0.00105704
0.00122715
0.0206993
0.00538559
-0.0111344
-0.00459063
0.00618105
-0.0104798
0.00697533
-0.00945586
0.00777098
-0.00885214
0.00855513
-0.00809451
0.0093408
-0.00772682
0.0101109
-0.00717177
0.0108705
-0.00679285
0.0116232
-0.00646701
0.0123555
-0.00609153
0.013067
-0.00577803
0.0137627
-0.00549291
0.0144399
-0.00519999
0.0150835
-0.00494049
0.0157023
-0.00468784
0.016296
-0.00442968
0.0168627
-0.00416916
0.0173959
-0.00394919
0.0178968
-0.00373429
0.0183683
-0.00349191
0.0188095
-0.00324796
0.0192199
-0.0030022
0.0195967
-0.00280906
0.0199422
-0.0025874
0.0202574
-0.0023427
0.0205421
-0.00209565
0.0207963
-0.00184611
0.0210199
-0.00161334
0.0212132
-0.0014027
0.0213767
-0.00114561
0.0215105
-0.00088651
0.0216147
-0.000625534
0.0216893
-0.000362877
0.0217347
-0.000114115
0.0217516
0.000152474
0.0217395
0.000436301
0.0216984
0.000697582
0.0216283
0.000937133
0.0215296
0.00115577
0.0013543
0.0214025
0.00544034
-0.0119497
-0.00462501
0.00625568
-0.0112951
0.0070694
-0.0102696
0.00788339
-0.00966614
0.00868631
-0.00889743
0.00948932
-0.00852983
0.0102775
-0.00795994
0.0110551
-0.00757046
0.0118253
-0.00723721
0.0125761
-0.00684236
0.0133073
-0.00650917
0.0140229
-0.0062086
0.0147208
-0.00589782
0.0153869
-0.00560661
0.0160291
-0.00533
0.0166469
-0.0050475
0.0172385
-0.00476075
0.0177972
-0.00450797
0.018324
-0.00426106
0.0188214
-0.00398926
0.0192883
-0.0037149
0.019724
-0.00343794
0.0201253
-0.00321033
0.0204943
-0.00295637
0.0208318
-0.00268026
0.0211377
-0.00240154
0.0214118
-0.00212017
0.0216537
-0.00185522
0.0218635
-0.0016125
0.022042
-0.00132413
0.0221892
-0.00103375
0.0223052
-0.000741509
0.02239
-0.000447647
0.0224439
-0.000168023
0.0224675
0.000128839
0.0224606
0.000443223
0.0224231
0.000735047
0.0223552
0.00100503
0.0222571
0.00125389
0.00148235
0.0221291
0.00550962
-0.0127881
-0.00467126
0.00634755
-0.012133
0.00718345
-0.0111055
0.00801866
-0.0105014
0.00884305
-0.00972182
0.00966623
-0.00935301
0.010475
-0.00876869
0.0112729
-0.00836841
0.0120628
-0.00802705
0.0128339
-0.00761346
0.0135858
-0.00726113
0.0143223
-0.00694511
0.0150412
-0.0066167
0.0157298
-0.00629517
0.0163949
-0.00599508
0.017036
-0.00568864
0.0176513
-0.00537608
0.0182345
-0.00509109
0.0187858
-0.0048124
0.0193077
-0.00451112
0.0197989
-0.00420617
0.0202587
-0.00389768
0.0206833
-0.00363492
0.0210747
-0.0033478
0.0214338
-0.00303934
0.0217601
-0.00272789
0.0220534
-0.00241351
0.0223132
-0.00211498
0.0225392
-0.00183851
0.0227325
-0.00151742
0.022893
-0.00119425
0.0230207
-0.000869224
0.0231157
-0.000542601
0.0231781
-0.000230431
0.0232085
9.84251e-05
0.0232068
0.000444905
0.0231731
0.000768815
0.0231073
0.00107077
0.0230098
0.0013514
0.00161132
0.0228808
0.00559193
-0.0136518
-0.00472817
0.00645485
-0.012996
0.00731535
-0.011966
0.00817432
-0.0113603
0.0090226
-0.0105701
0.00986847
-0.0101989
0.0107001
-0.00960035
0.0115206
-0.00918889
0.0123322
-0.00883864
0.0131254
-0.00840663
0.0138996
-0.00803537
0.0146581
-0.00770363
0.0153989
-0.00735748
0.0161103
-0.00700662
0.0167985
-0.00668321
0.0174628
-0.00635292
0.0181014
-0.0060147
0.0187082
-0.00569789
0.0192833
-0.00538753
0.0198288
-0.0050566
0.0203435
-0.00472081
0.0208262
-0.00438043
0.0212732
-0.00408194
0.0216863
-0.00376089
0.0220662
-0.00341919
0.0224123
-0.00307402
0.0227243
-0.00272553
0.0230015
-0.00239213
0.0232434
-0.0020804
0.0234512
-0.00172521
0.0236247
-0.00136781
0.023764
-0.0010085
0.023869
-0.000647595
0.0239398
-0.00030124
0.0239769
6.12968e-05
0.0239804
0.000441413
0.0239503
0.000798961
0.0238866
0.00113445
0.0237896
0.0014484
0.00174133
0.0236596
0.00568615
-0.0145431
-0.00479484
0.00657625
-0.0138861
0.00746358
-0.0128533
0.00834859
-0.0122453
0.00922298
-0.0114445
0.0100938
-0.0110697
0.0109506
-0.0104571
0.0117957
-0.010034
0.012631
-0.009674
0.0134481
-0.00922365
0.0142461
-0.00883346
0.015028
-0.00848552
0.0157918
-0.00812128
0.016527
-0.00774173
0.0172387
-0.00739492
0.0179264
-0.00704063
0.0185883
-0.00667664
0.0192186
-0.00632819
0.0198172
-0.00598614
0.0203859
-0.00562526
0.0209233
-0.00525826
0.0214284
-0.00488555
0.0218973
-0.00455079
0.0223314
-0.00419505
0.0227315
-0.00381925
0.0230969
-0.00343939
0.023427
-0.00305572
0.0237211
-0.00268622
0.0239786
-0.00233784
0.0242005
-0.00194718
0.0243869
-0.00155414
0.0245375
-0.00115909
0.0246523
-0.000762414
0.0247313
-0.000380271
0.024775
1.76033e-05
0.0247835
0.000432902
0.0247568
0.000825647
0.024695
0.00119624
0.0245984
0.00154509
0.0018726
0.0244671
0.00579147
-0.015464
-0.00487057
0.0067108
-0.0148054
0.00762702
-0.0137695
0.00854021
-0.0131585
0.00944277
-0.0123471
0.0103408
-0.0119678
0.0112246
-0.0113409
0.0120963
-0.0109057
0.0129574
-0.0105351
0.0138001
-0.0100663
0.0146236
-0.009657
0.0154303
-0.00929225
0.0162184
-0.0089094
0.0169782
-0.00850153
0.0177143
-0.008131
0.018426
-0.00775235
0.0191117
-0.00736227
0.0197656
-0.00698217
0.0203877
-0.00660824
0.0209795
-0.00621696
0.0215395
-0.00581828
0.0220666
-0.00541269
0.0225569
-0.00504111
0.0230118
-0.00464991
0.0234316
-0.00423911
0.0238158
-0.00382358
0.0241638
-0.00340366
0.0244744
-0.00299688
0.0247471
-0.0026105
0.024983
-0.00218304
0.0251818
-0.00175298
0.0253435
-0.00132075
0.0254679
-0.000886814
0.0255549
-0.000467303
0.025605
-3.24536e-05
0.0256183
0.000419582
0.0255948
0.000849094
0.0255347
0.00125637
0.0254381
0.0016417
0.0020054
0.0253053
0.0059073
-0.0164164
-0.00495487
0.00685782
-0.0157559
0.0078049
-0.0147166
0.0087483
-0.0141019
0.00968099
-0.0132797
0.0106082
-0.0128949
0.011521
-0.0122538
0.0124212
-0.0118059
0.0133099
-0.0114238
0.01418
-0.0109364
0.0150306
-0.0105076
0.0158637
-0.0101253
0.0166775
-0.00972322
0.0174631
-0.00928715
0.0182246
-0.00889245
0.0189611
-0.0084889
0.0196711
-0.00807224
0.0203492
-0.0076603
0.0209951
-0.00725414
0.0216101
-0.00683189
0.0221927
-0.0064009
0.0227418
-0.00596179
0.0232534
-0.00555276
0.0237288
-0.00512528
0.0241682
-0.00467855
0.024571
-0.00422633
0.0249364
-0.00376909
0.0252634
-0.00332385
0.0255511
-0.00289816
0.0258006
-0.00243256
0.0260117
-0.00196407
0.0261841
-0.00149323
0.0263179
-0.00102055
0.0264127
-0.000562098
0.0264689
-8.86462e-05
0.0264868
0.000401698
0.0264663
0.000869564
0.0264075
0.00131512
0.0263107
0.00173856
0.00214006
0.026176
0.00603322
-0.0174023
-0.00504737
0.00701683
-0.0167395
0.0079967
-0.0156965
0.00897225
-0.0150775
0.00993697
-0.0142445
0.0108953
-0.0138532
0.0118391
-0.0131976
0.0127696
-0.0127364
0.0136878
-0.012342
0.014587
-0.0118355
0.0154663
-0.0113869
0.0163273
-0.0109863
0.0171682
-0.0105642
0.0179809
-0.0100999
0.0187689
-0.00968038
0.0195312
-0.00925126
0.0202664
-0.00880738
0.0209693
-0.00836324
0.0216395
-0.00792436
0.0222781
-0.00747042
0.0228836
-0.0070064
0.0234548
-0.006533
0.0239878
-0.00608583
0.0244837
-0.00562117
0.0249427
-0.0051375
0.0253639
-0.00464754
0.0257467
-0.00415185
0.0260898
-0.00366695
0.0263922
-0.00320065
0.0266552
-0.00269555
0.0268784
-0.00218723
0.0270615
-0.00167631
0.0272043
-0.00116338
0.0273066
-0.000664421
0.0273687
-0.000150736
0.0273909
0.00037951
0.0273731
0.000887341
0.0273154
0.00137281
0.027218
0.00183598
0.00227693
0.0270811
0.00616895
-0.0184234
-0.00514781
0.00718753
-0.0177581
0.00820205
-0.016711
0.00921166
-0.0160871
0.0102103
-0.0152431
0.0112016
-0.0148446
0.0121782
-0.0141741
0.0131409
-0.0136992
0.0140903
-0.0132914
0.0150203
-0.0127656
0.01593
-0.0122965
0.0168205
-0.0118768
0.0176901
-0.0114338
0.0185312
-0.010941
0.0193468
-0.010496
0.0201361
-0.0100405
0.0208974
-0.00956865
0.021626
-0.0090918
0.0223212
-0.00861958
0.0229839
-0.00813313
0.0236127
-0.00763523
0.0242064
-0.00712666
0.0247611
-0.00664056
0.0252777
-0.00613777
0.0257563
-0.00561608
0.026196
-0.00508724
0.026596
-0.00455191
0.0269552
-0.00402612
0.0272724
-0.00351788
0.0275488
-0.00297189
0.0277838
-0.0024223
0.0279773
-0.00186981
0.0281291
-0.00131512
0.0282387
-0.000774053
0.0283065
-0.00021849
0.0283327
0.000353284
0.0283173
0.000902721
0.0282604
0.00142975
0.028162
0.00193433
0.00241642
0.0280225
0.00631431
-0.0194817
-0.00525603
0.00736972
-0.0188135
0.00842075
-0.017762
0.00946631
-0.0171326
0.0105007
-0.0162775
0.0115269
-0.0158708
0.0125381
-0.0151853
0.0135347
-0.0146958
0.0145172
-0.0142739
0.0154799
-0.0137282
0.0164215
-0.0132381
0.017343
-0.0127984
0.0182428
-0.0123336
0.0191138
-0.0118119
0.0199584
-0.0113406
0.0207757
-0.0108579
0.0215642
-0.0103571
0.0223194
-0.00984694
0.0230404
-0.00934062
0.023728
-0.00882071
0.0243807
-0.00828797
0.0249973
-0.00774325
0.0255741
-0.00721735
0.0261117
-0.00667537
0.0266102
-0.00611451
0.0270685
-0.00554559
0.027486
-0.00496937
0.0278612
-0.00440139
0.0281932
-0.00384986
0.0284829
-0.00326153
0.0287298
-0.00266919
0.0289336
-0.00207361
0.029094
-0.00147558
0.0292108
-0.000890798
0.029284
-0.000291686
0.029314
0.000323277
0.0293007
0.000916002
0.0292442
0.0014863
0.0291445
0.00203399
0.00255893
0.029002
0.00646921
-0.020579
-0.00537192
0.00756331
-0.0199076
0.00865273
-0.0188515
0.00973612
-0.018216
0.0108081
-0.0173494
0.0118711
-0.0169338
0.0129187
-0.0162328
0.0139511
-0.0157283
0.0149685
-0.0152913
0.0159654
-0.0147251
0.0169406
-0.0142134
0.0178949
-0.0137527
0.0188264
-0.0132652
0.0197286
-0.0127141
0.0206036
-0.0122156
0.0214503
-0.0117047
0.0222672
-0.011174
0.0230499
-0.0106297
0.0237977
-0.0100884
0.024511
-0.00953401
0.0251884
-0.00896536
0.0258286
-0.0083834
0.0264279
-0.00781671
0.026987
-0.00723441
0.0275056
-0.00663314
0.0279829
-0.00602286
0.0284179
-0.00540442
0.0288094
-0.0047929
0.0291562
-0.00419667
0.0294592
-0.00356451
0.0297179
-0.00292787
0.0299319
-0.00228763
0.030101
-0.00164466
0.0302247
-0.00101449
0.0303031
-0.000370128
0.0303367
0.000289735
0.0303252
0.000927471
0.0302687
0.00154277
0.0301674
0.00213533
0.00270487
0.0300214
0.00663362
-0.0217172
-0.00549544
0.00776831
-0.0210423
0.00889801
-0.0199811
0.0100211
-0.0193391
0.0111326
-0.0184608
0.0122342
-0.0180355
0.0133201
-0.0173187
0.0143901
-0.0167983
0.0154441
-0.0163453
0.0164771
-0.015758
0.0174876
-0.015224
0.0184762
-0.0147413
0.0194411
-0.01423
0.020376
-0.013649
0.0212827
-0.0131223
0.0221601
-0.0125821
0.0230066
-0.0120205
0.0238181
-0.0114412
0.0245937
-0.010864
0.0253336
-0.0102739
0.0260365
-0.00966822
0.0267009
-0.00904783
0.0273235
-0.00843928
0.0279045
-0.00781542
0.0284438
-0.00717241
0.0289403
-0.00651941
0.0293933
-0.00585735
0.0298012
-0.00520086
0.030163
-0.00455846
0.0304794
-0.00388092
0.0307499
-0.00319839
0.0309742
-0.00251185
0.0311518
-0.00182226
0.0312823
-0.00114501
0.0313658
-0.000453639
0.0314026
0.000252884
0.0313927
0.000937409
0.031336
0.00159949
0.0312326
0.00223872
0.00285469
0.0310828
0.00680758
-0.0228982
-0.00562658
0.00798479
-0.0222195
0.00915667
-0.021153
0.0103214
-0.0205039
0.0114742
-0.0196136
0.0126165
-0.0191777
0.0137424
-0.0184446
0.0148518
-0.0179077
0.0159444
-0.0174378
0.0170151
-0.0168288
0.0180627
-0.0162716
0.0190873
-0.0157659
0.0200872
-0.0152299
0.0210563
-0.0146181
0.0219962
-0.0140622
0.0229057
-0.0134916
0.0237832
-0.0128979
0.0246246
-0.0122826
0.0254291
-0.0116685
0.0261966
-0.0110415
0.0269259
-0.0103975
0.0276154
-0.00973737
0.0282619
-0.00908578
0.0288655
-0.00841904
0.029426
-0.00773288
0.0299423
-0.0070357
0.0304135
-0.00632854
0.0308382
-0.00562558
0.0312152
-0.00493548
0.0315452
-0.0042109
0.0318276
-0.00348082
0.0320621
-0.00274628
0.0322482
-0.00200835
0.0323854
-0.00128225
0.0324738
-0.000542073
0.0325138
0.000212932
0.0325051
0.000946079
0.0324478
0.0016568
0.032342
0.00234455
0.0030088
0.0321879
0.00699119
-0.024124
-0.00576541
0.00821286
-0.0234412
0.0094289
-0.0223691
0.0106373
-0.0217123
0.0118333
-0.0208097
0.0130181
-0.0203625
0.014186
-0.0196126
0.0153367
-0.0190584
0.0164696
-0.0185707
0.01758
-0.0179392
0.0186664
-0.0173579
0.0197287
-0.0168282
0.0207652
-0.0162663
0.0217701
-0.0156231
0.0227448
-0.0150368
0.0236878
-0.0144346
0.0245975
-0.0138076
0.0254702
-0.0131553
0.0263047
-0.012503
0.027101
-0.0118378
0.0278576
-0.0111541
0.0285732
-0.0104529
0.0292444
-0.00975701
0.0298713
-0.00904597
0.0304536
-0.00831516
0.0309902
-0.00757227
0.0314801
-0.00681843
0.0319219
-0.00606741
0.0323144
-0.005328
0.0326582
-0.00455469
0.0329527
-0.00377531
0.0331974
-0.002991
0.033392
-0.00220293
0.0335359
-0.00142616
0.0336291
-0.000635308
0.033672
0.000170063
0.0336644
0.000953729
0.0336062
0.001715
0.0334975
0.00245319
0.00316764
0.0333387
0.00718457
-0.0253965
-0.005912
0.00845272
-0.0247093
0.0097149
-0.0236312
0.0109689
-0.0229663
0.0122102
-0.022051
0.0134394
-0.0215916
0.0146513
-0.0208245
0.0158452
-0.0202523
0.0170203
-0.0197458
0.0181721
-0.019091
0.0192991
-0.0184849
0.0204009
-0.0179301
0.0214757
-0.0173411
0.0225181
-0.0166655
0.023529
-0.0160477
0.024507
-0.0154127
0.0254505
-0.0147511
0.0263557
-0.0140605
0.0272215
-0.0133688
0.0280477
-0.012664
0.0288328
-0.0119392
0.0295753
-0.0111955
0.0302721
-0.0104538
0.0309232
-0.00969701
0.031528
-0.00891995
0.0320854
-0.00812972
0.0325946
-0.00732755
0.0330539
-0.0065268
0.0334623
-0.00573638
0.0338202
-0.00491256
0.0341269
-0.00408206
0.0343821
-0.00324613
0.0345852
-0.00240604
0.0347357
-0.00157671
0.0348337
-0.00073325
0.0348793
0.000124442
0.0348724
0.000960594
0.034813
0.00177438
0.0347012
0.002565
0.00333164
0.0345372
0.00738789
-0.026718
-0.00606647
0.00870459
-0.026026
0.010015
-0.0249416
0.0113166
-0.0242679
0.0126052
-0.0233396
0.0138809
-0.0228673
0.0151387
-0.0220823
0.0163777
-0.0214913
0.017597
-0.0209651
0.0187922
-0.0202862
0.0199616
-0.0196543
0.0211047
-0.0190731
0.0222195
-0.018456
0.0233011
-0.017747
0.0243498
-0.0170965
0.0253644
-0.0164273
0.0263431
-0.0157297
0.0272822
-0.0149996
0.0281806
-0.0142672
0.0290379
-0.0135213
0.0298526
-0.0127539
0.0306232
-0.011966
0.0313466
-0.0111772
0.0320226
-0.010373
0.0326506
-0.00954802
0.0332296
-0.00870874
0.0337586
-0.00785647
0.034236
-0.00700423
0.0346607
-0.00616103
0.0350329
-0.00528482
0.0353522
-0.00440131
0.0356179
-0.00351184
0.0358296
-0.00261778
0.0359868
-0.0017339
0.0360894
-0.000835832
0.0361376
7.62114e-05
0.0361313
0.000966888
0.0360705
0.00183524
0.0359551
0.00268034
0.00350123
0.0357855
0.00760138
-0.0280904
-0.00622897
0.00896874
-0.0273934
0.0103294
-0.0263023
0.0116809
-0.0256193
0.0130188
-0.0246775
0.014343
-0.0241916
0.0156488
-0.0233881
0.016935
-0.0227775
0.0182004
-0.0222305
0.0194409
-0.0215267
0.0206546
-0.020868
0.0218408
-0.0202594
0.0229975
-0.0196127
0.0241199
-0.0188694
0.0252082
-0.0181848
0.026261
-0.01748
0.0272763
-0.0167451
0.0282509
-0.0159742
0.0291832
-0.0151995
0.0300729
-0.014411
0.0309184
-0.0135993
0.0317181
-0.0127657
0.0324691
-0.0119282
0.0331709
-0.0110749
0.0338231
-0.0102002
0.0344244
-0.00931005
0.0349738
-0.00840585
0.0354699
-0.00750028
0.0359112
-0.00660243
0.0362983
-0.00567187
0.0366303
-0.00473335
0.0369068
-0.00378832
0.0371273
-0.00283825
0.0372912
-0.00189777
0.0373983
-0.000943012
0.0374491
2.5492e-05
0.0374431
0.000972813
0.0373805
0.00189786
0.0372613
0.00279957
0.00367684
0.0370857
0.00782525
-0.029516
-0.00639966
0.00924548
-0.0288136
0.0106587
-0.0277155
0.012062
-0.0270227
0.0134515
-0.026067
0.0148264
-0.0255665
0.0161823
-0.024744
0.0175177
-0.0241128
0.0188313
-0.023544
0.020119
-0.0228144
0.0213789
-0.0221279
0.0226102
-0.0214906
0.0238107
-0.0208132
0.0249757
-0.0200345
0.0261053
-0.0193144
0.0271978
-0.0185726
0.0282515
-0.0177987
0.0292629
-0.0169856
0.0302307
-0.0161672
0.0311541
-0.0153345
0.0320316
-0.0144769
0.0328616
-0.0135958
0.0336412
-0.0127078
0.03437
-0.0118036
0.0350471
-0.0108774
0.0356715
-0.00993446
0.0362421
-0.00897639
0.0367573
-0.00801553
0.037216
-0.00706107
0.0376182
-0.00607411
0.0379634
-0.00507851
0.0382509
-0.00407582
0.0384802
-0.00306761
0.0386509
-0.0020684
0.0387626
-0.00105478
0.0388157
-2.76151e-05
0.03881
0.000978552
0.0387453
0.0019625
0.0386219
0.00292303
0.0038589
0.0384398
0.0080598
-0.030997
-0.00657875
0.00953515
-0.030289
0.0110031
-0.0291835
0.0124607
-0.0284803
0.0139038
-0.0275101
0.0153316
-0.0269943
0.0167397
-0.0261521
0.0181265
-0.0254996
0.0194904
-0.0249079
0.0208274
-0.0241515
0.0221356
-0.0234361
0.0234139
-0.0227689
0.02466
-0.0220594
0.0258695
-0.0212439
0.0270421
-0.020487
0.0281762
-0.0197067
0.0292699
-0.0188924
0.0303197
-0.0180354
0.0313243
-0.0171718
0.0322829
-0.0162931
0.0331938
-0.0153877
0.0340553
-0.0144573
0.0348647
-0.0135172
0.0356213
-0.0125603
0.0363244
-0.0115805
0.0369728
-0.0105828
0.0375652
-0.00956884
0.0381003
-0.00855064
0.0385768
-0.00753752
0.0389947
-0.00649202
0.0393534
-0.00543717
0.0396522
-0.00437461
0.0398906
-0.00330605
0.0400681
-0.00224587
0.0401844
-0.00117113
0.0402398
-8.30268e-05
0.0402341
0.000984276
0.0401672
0.00202943
0.0400391
0.00305107
0.00404783
0.0398502
0.00830531
-0.0325359
-0.00676646
0.00983813
-0.0318218
0.0113632
-0.0307085
0.0128772
-0.0299943
0.0143764
-0.0290093
0.0158594
-0.0284773
0.0173219
-0.0276146
0.0187622
-0.0269399
0.0201786
-0.0263243
0.0215671
-0.02554
0.0229256
-0.0247946
0.0242529
-0.0240961
0.0255467
-0.0233531
0.0268026
-0.0224998
0.0280201
-0.0217045
0.0291975
-0.0208841
0.0303328
-0.0200277
0.0314228
-0.0191254
0.0324658
-0.0182148
0.033461
-0.0172882
0.0344066
-0.0163333
0.0353009
-0.0153517
0.0361413
-0.0143575
0.0369269
-0.0133459
0.0376569
-0.0123105
0.0383301
-0.011256
0.0389452
-0.010184
0.0395009
-0.00910633
0.0399958
-0.00803239
0.0404299
-0.00692611
0.0408024
-0.00580973
0.0411129
-0.00468502
0.0413606
-0.00355378
0.041545
-0.0024303
0.041666
-0.00129209
0.0417236
-0.000140677
0.0417178
0.000990146
0.0416483
0.00209888
0.0415154
0.00318403
0.00424406
0.0413191
0.00856213
-0.034135
-0.00696304
0.0101548
-0.0334145
0.0117394
-0.0322931
0.0133123
-0.0315673
0.0148699
-0.0305669
0.0164104
-0.0300178
0.0179297
-0.029134
0.0194258
-0.028436
0.0208969
-0.0277954
0.0223391
-0.0269822
0.0237501
-0.0262056
0.0251285
-0.0254745
0.026472
-0.0246966
0.0277762
-0.0238041
0.0290405
-0.0229689
0.0302631
-0.0221067
0.0314419
-0.0212064
0.0325736
-0.0202571
0.0336566
-0.0192979
0.0346899
-0.0183215
0.0356717
-0.0173151
0.0366002
-0.0162802
0.0374727
-0.0152301
0.0382885
-0.0141616
0.0390465
-0.0130685
0.0397455
-0.011955
0.0403842
-0.0108227
0.0409612
-0.00968334
0.0414751
-0.00854632
0.041926
-0.00737692
0.0423129
-0.00619664
0.0426352
-0.00500738
0.0428925
-0.00381105
0.043084
-0.00262184
0.0432097
-0.00141772
0.0432695
-0.000200516
0.0432634
0.000996307
0.0431911
0.00217111
0.0430529
0.00332225
0.00444804
0.0428489
0.0088306
-0.0357968
-0.00716875
0.0104857
-0.0350696
0.0121322
-0.0339396
0.0137666
-0.0332016
0.015385
-0.0321852
0.0169854
-0.0316183
0.0185639
-0.0307125
0.0201183
-0.0299903
0.0216464
-0.0293235
0.0231445
-0.0284803
0.0246102
-0.0276713
0.0260419
-0.0269062
0.0274371
-0.0260919
0.0287918
-0.0251587
0.0301049
-0.024282
0.0313746
-0.0233764
0.0325986
-0.0224305
0.0337739
-0.0214324
0.0348986
-0.0204225
0.0359715
-0.0193945
0.036991
-0.0183345
0.0379551
-0.0172443
0.0388611
-0.0161361
0.0397082
-0.0150087
0.0404953
-0.0138556
0.0412211
-0.0126807
0.0418843
-0.0114859
0.0424834
-0.0102825
0.0430171
-0.00908001
0.0434852
-0.00784503
0.043887
-0.00659839
0.0442216
-0.00534208
0.0444887
-0.00407813
0.0446876
-0.00282067
0.0448179
-0.00154809
0.0448799
-0.000262508
0.0448733
0.0010029
0.0447981
0.00224635
0.0446543
0.00346607
0.00466019
0.0444421
0.00911111
-0.037524
-0.00738388
0.0108312
-0.0367897
0.0125423
-0.0356507
0.0142406
-0.0349
0.0159224
-0.033867
0.0175853
-0.0332812