/*--------------------------------*- C++ -*----------------------------------*\
| =========                 |                                                 |
| \\      /  F ield         | OpenFOAM: The Open Source CFD Toolbox           |
|  \\    /   O peration     | Version:  3.0.1                                 |
|   \\  /    A nd           | Web:      www.OpenFOAM.org                      |
|    \\/     M anipulation  |                                                 |
\*---------------------------------------------------------------------------*/
FoamFile
{
    version     2.0;
    format      ascii;
    class       volVectorField;
    location    "500";
    object      U;
}
// * * * * * * * * * * * * * * * * * * * * * * * * * * * * * * * * * * * * * //

dimensions      [0 1 -1 0 0 0 0];

internalField   nonuniform List<vector> 
58000
(
(0.449619 0.900169 -6.61683e-21)
(0.588112 1.02078 2.02373e-21)
(0.72308 1.05812 2.26473e-20)
(0.839877 1.03689 -4.28032e-20)
(0.931388 0.978958 1.60586e-20)
(0.997457 0.900005 1.29142e-20)
(1.04855 0.815556 0)
(1.0855 0.73403 -1.75618e-20)
(1.1122 0.654294 4.39497e-20)
(1.13312 0.581116 1.28478e-20)
(1.14913 0.517633 -2.93594e-20)
(1.16074 0.461364 0)
(1.16884 0.410548 0)
(1.17635 0.367963 1.19402e-20)
(1.18009 0.332486 0)
(1.18144 0.3018 -1.10685e-19)
(1.18091 0.274873 1.09416e-19)
(1.17959 0.251603 -1.17875e-20)
(1.17748 0.231827 9.0798e-20)
(1.17433 0.214417 -9.0101e-20)
(1.17066 0.198612 -8.64024e-20)
(1.16626 0.183865 8.57235e-20)
(1.16199 0.170417 0)
(1.15732 0.158328 8.00151e-20)
(1.1522 0.147136 -7.95812e-20)
(1.14682 0.136556 7.67122e-20)
(1.14111 0.126428 3.48902e-21)
(1.13516 0.116734 -7.48443e-20)
(1.12939 0.107787 0)
(1.12317 0.0995122 4.36512e-21)
(1.11665 0.0916555 -3.91435e-20)
(1.10985 0.0842156 7.34625e-20)
(1.10239 0.0772194 -5.99391e-22)
(1.09446 0.0708183 -3.17642e-20)
(1.08498 0.0648494 -1.5347e-20)
(1.07303 0.0591816 1.64949e-20)
(1.05977 0.0539125 1.01038e-21)
(1.04718 0.0492144 9.88164e-22)
(1.0357 0.0448759 -2.97216e-21)
(1.03031 0.0415292 5.12496e-21)
(0.610023 0.512949 -3.65103e-21)
(0.706132 0.573973 2.13413e-21)
(0.801131 0.618139 0)
(0.891986 0.650014 -1.42836e-21)
(0.978329 0.672076 -5.85223e-21)
(1.05886 0.679413 -3.20465e-21)
(1.12957 0.671446 5.96971e-21)
(1.18785 0.653106 1.30395e-20)
(1.23671 0.625452 -1.418e-20)
(1.27437 0.591261 0)
(1.30098 0.555213 3.84624e-20)
(1.3196 0.517802 -1.12992e-19)
(1.3313 0.478744 -1.91428e-21)
(1.33645 0.442155 4.87221e-21)
(1.33785 0.409161 1.24678e-19)
(1.33656 0.377743 -7.80031e-20)
(1.33304 0.347706 5.47935e-20)
(1.32808 0.320301 -1.2581e-19)
(1.32241 0.296141 -6.87097e-21)
(1.31616 0.274062 6.19673e-20)
(1.30941 0.25333 7.37488e-21)
(1.30225 0.233777 0)
(1.29514 0.216036 0)
(1.28824 0.20017 0)
(1.2813 0.185381 0)
(1.27424 0.171322 6.33195e-20)
(1.26709 0.157923 -5.65083e-20)
(1.25993 0.145295 0)
(1.25303 0.133791 3.03607e-20)
(1.24627 0.123175 -5.50012e-22)
(1.23948 0.113058 -2.33892e-20)
(1.23266 0.103438 -3.36462e-21)
(1.22601 0.0943355 2.2656e-20)
(1.21978 0.0858524 -2.75265e-20)
(1.21423 0.0779635 0)
(1.20893 0.0706676 -1.53276e-21)
(1.20362 0.0639906 1.5142e-21)
(1.19853 0.0579672 -7.72611e-22)
(1.19381 0.0522174 -3.00245e-21)
(1.18945 0.0469447 3.11311e-21)
(0.647249 0.46117 5.83149e-22)
(0.690641 0.511907 0)
(0.741286 0.55352 0)
(0.798957 0.586042 4.47838e-22)
(0.859403 0.607182 -3.20527e-21)
(0.92099 0.618487 5.79506e-21)
(0.98063 0.620804 -6.84065e-21)
(1.03517 0.614279 -1.06992e-20)
(1.08716 0.60019 1.09883e-20)
(1.13323 0.580165 0)
(1.17138 0.555833 0)
(1.20385 0.527944 -7.82829e-21)
(1.23154 0.497231 3.90157e-20)
(1.25262 0.466546 -4.02029e-22)
(1.26806 0.436664 -4.09847e-20)
(1.27969 0.407082 1.13812e-20)
(1.28803 0.378208 5.39354e-20)
(1.29319 0.35126 -1.02733e-20)
(1.29578 0.326805 -3.83172e-20)
(1.29656 0.304031 -3.34765e-20)
(1.29596 0.282494 3.85811e-20)
(1.29423 0.262147 1.05532e-20)
(1.29162 0.243576 0)
(1.2884 0.226766 0)
(1.28468 0.211012 -5.19214e-21)
(1.28053 0.19606 -4.79232e-20)
(1.276 0.181854 4.26773e-20)
(1.27121 0.168492 -5.09766e-21)
(1.26632 0.156238 -2.65455e-21)
(1.26133 0.144811 -2.62799e-21)
(1.25614 0.133844 0)
(1.25079 0.123295 0)
(1.24529 0.113102 -1.74898e-20)
(1.23971 0.103347 2.01464e-20)
(1.23415 0.0941787 2.41611e-21)
(1.22857 0.0855948 5.02664e-23)
(1.22298 0.0775859 -1.2355e-21)
(1.21758 0.070173 0)
(1.21249 0.0631817 2.3824e-21)
(1.2077 0.056396 -2.51132e-21)
(0.717041 0.394276 1.39224e-21)
(0.746487 0.430486 -1.37018e-21)
(0.778908 0.463252 0)
(0.815356 0.492857 -1.67121e-21)
(0.855583 0.515913 1.61913e-21)
(0.898708 0.532524 -3.56487e-22)
(0.943445 0.542088 4.77902e-22)
(0.986812 0.544626 -4.71453e-21)
(1.02995 0.541061 1.47847e-22)
(1.07068 0.531822 0)
(1.10679 0.518018 -3.88604e-21)
(1.13935 0.500367 3.22476e-20)
(1.16883 0.47928 -2.20668e-20)
(1.19319 0.456672 -7.09452e-21)
(1.21273 0.433427 0)
(1.22895 0.409356 2.23437e-20)
(1.24213 0.384817 -3.73248e-20)
(1.25206 0.360974 -2.26214e-20)
(1.25905 0.338566 3.83376e-20)
(1.26392 0.317142 -8.35469e-21)
(1.26713 0.296442 7.65654e-21)
(1.2689 0.276528 -8.45219e-21)
(1.26937 0.258051 -3.23015e-20)
(1.26884 0.241096 3.24148e-20)
(1.26754 0.225071 -3.61263e-21)
(1.26559 0.20976 3.91851e-21)
(1.2631 0.195127 0)
(1.26014 0.181296 4.15353e-21)
(1.25688 0.168544 0)
(1.25338 0.156619 3.87754e-21)
(1.2496 0.145177 -1.58182e-20)
(1.24557 0.134195 1.59967e-20)
(1.24132 0.123644 1.57439e-20)
(1.2369 0.113624 -2.13126e-21)
(1.2324 0.104244 -1.77039e-20)
(1.22778 0.0953636 8.67829e-21)
(1.22301 0.0868639 -7.76269e-21)
(1.2182 0.0787699 0)
(1.21342 0.0710413 9.3613e-22)
(1.20877 0.0636264 0)
(0.7562 0.356854 2.95094e-21)
(0.776668 0.384874 -9.47402e-22)
(0.799387 0.41123 -1.52759e-21)
(0.825118 0.43639 8.6718e-22)
(0.854101 0.457878 0)
(0.886111 0.475543 5.65684e-22)
(0.920587 0.488397 0)
(0.955438 0.495635 -1.32231e-21)
(0.991432 0.498071 3.73095e-21)
(1.02681 0.495555 3.45853e-21)
(1.05956 0.488416 3.08403e-21)
(1.09035 0.477363 -3.64203e-21)
(1.11943 0.46283 1.54553e-20)
(1.14468 0.445981 -1.95312e-20)
(1.16599 0.427574 0)
(1.18464 0.407747 5.32579e-21)
(1.20072 0.386873 0)
(1.21376 0.365938 -5.07295e-21)
(1.22382 0.345663 -7.15165e-22)
(1.23168 0.325829 -2.32741e-20)
(1.23779 0.306322 -1.21453e-20)
(1.24231 0.287271 -1.49587e-22)
(1.24527 0.269328 1.8567e-20)
(1.24693 0.252633 -2.45902e-20)
(1.24762 0.236711 3.12848e-20)
(1.24752 0.221399 2.77377e-20)
(1.24671 0.206691 -2.52178e-20)
(1.24528 0.192722 -1.89715e-20)
(1.24336 0.179768 2.52544e-20)
(1.24104 0.167595 -2.82479e-20)
(1.23836 0.155886 2.5334e-20)
(1.23535 0.144622 3.07232e-21)
(1.23205 0.13378 0)
(1.22851 0.123455 -1.09014e-20)
(1.22483 0.113755 1.5329e-22)
(1.221 0.104528 1.25377e-20)
(1.21698 0.0956417 -6.17571e-21)
(1.21283 0.0871216 6.24607e-21)
(1.20859 0.0789626 -3.86606e-21)
(1.20431 0.0711576 3.29432e-21)
(0.790063 0.326931 -2.75418e-21)
(0.805769 0.348981 2.52787e-21)
(0.822698 0.370127 1.60261e-22)
(0.841563 0.390957 -1.75031e-21)
(0.862968 0.409669 9.77102e-22)
(0.88695 0.426238 -1.45743e-21)
(0.9135 0.439711 4.99666e-22)
(0.941166 0.449107 -1.30797e-21)
(0.970545 0.455027 2.13188e-21)
(1.00041 0.456938 -8.13045e-21)
(1.02904 0.454716 5.42385e-21)
(1.05681 0.448936 8.4758e-21)
(1.08387 0.439909 -1.28468e-20)
(1.10827 0.428192 3.08592e-21)
(1.12966 0.414416 5.55568e-21)
(1.14905 0.398857 1.39315e-20)
(1.1664 0.38183 -1.41634e-20)
(1.18112 0.364123 4.2214e-21)
(1.19308 0.346412 1.60556e-20)
(1.20294 0.328656 -1.68342e-20)
(1.21111 0.310836 4.71483e-21)
(1.21767 0.293122 1.83706e-20)
(1.22256 0.276139 -1.36492e-20)
(1.22599 0.260092 -4.52699e-21)
(1.22834 0.244619 -1.92519e-20)
(1.22978 0.229608 3.39557e-20)
(1.23039 0.215079 -1.97602e-20)
(1.23026 0.201185 -3.57895e-22)
(1.2295 0.188207 1.9907e-20)
(1.22823 0.175946 -4.00585e-20)
(1.22651 0.164118 2.2695e-20)
(1.22439 0.152713 -2.28318e-20)
(1.2219 0.141716 7.86237e-21)
(1.21912 0.131223 2.03793e-20)
(1.21612 0.121342 -1.02172e-20)
(1.21292 0.111921 -1.00767e-20)
(1.2095 0.10282 1.0197e-20)
(1.20589 0.0940597 5.03704e-21)
(1.20212 0.0856518 -4.48033e-21)
(1.19822 0.0776134 0)
(0.815814 0.30419 7.28722e-22)
(0.828497 0.322063 -1.64603e-21)
(0.841946 0.339349 1.86951e-21)
(0.856681 0.356615 0)
(0.873283 0.372561 0)
(0.891903 0.38727 0)
(0.912754 0.4 9.63037e-23)
(0.934891 0.409816 9.15386e-22)
(0.958839 0.417226 -3.4605e-22)
(0.983783 0.42157 1.08026e-21)
(1.00837 0.422448 0)
(1.03283 0.4203 2.18472e-21)
(1.05728 0.415346 3.54195e-21)
(1.08 0.407683 0)
(1.10055 0.397777 -8.55764e-21)
(1.1197 0.38596 -9.91166e-21)
(1.13735 0.372475 1.00839e-20)
(1.15282 0.357905 -1.16809e-20)
(1.16586 0.342831 8.55944e-21)
(1.17702 0.327326 6.0106e-21)
(1.18662 0.31144 -7.28869e-21)
(1.1947 0.295355 -3.27376e-22)
(1.20111 0.279648 1.08584e-20)
(1.20599 0.264557 3.6057e-22)
(1.20973 0.249828 0)
(1.2125 0.235397 0)
(1.21437 0.221309 -1.57118e-20)
(1.21542 0.207727 3.14363e-20)
(1.2157 0.194933 -1.21777e-20)
(1.21538 0.182769 0)
(1.21455 0.170984 -1.84124e-20)
(1.21325 0.159578 1.01795e-22)
(1.21152 0.148547 1.88343e-20)
(1.20943 0.137986 -8.30946e-21)
(1.20705 0.128003 1.04121e-20)
(1.20442 0.118456 8.29968e-21)
(1.20153 0.109211 -8.40385e-21)
(1.1984 0.100291 0)
(1.19506 0.0917141 -2.62201e-21)
(1.19154 0.0835072 1.96708e-21)
(0.836931 0.285744 -1.14827e-21)
(0.847561 0.300539 1.56145e-21)
(0.858673 0.314897 0)
(0.870665 0.329334 0)
(0.884047 0.342875 8.24183e-22)
(0.898982 0.355663 -8.26205e-22)
(0.915749 0.367145 5.14759e-22)
(0.933724 0.376529 -5.41719e-22)
(0.95337 0.384267 3.74196e-23)
(0.974173 0.389715 -3.17342e-22)
(0.995109 0.392368 0)
(1.01634 0.392558 -1.89306e-21)
(1.03798 0.390435 6.45523e-21)
(1.05861 0.385804 -7.02836e-21)
(1.07774 0.378976 6.04223e-22)
(1.09598 0.370282 0)
(1.11318 0.359887 0)
(1.12868 0.348181 3.92265e-21)
(1.14213 0.335637 1.44186e-20)
(1.15397 0.322392 -3.9449e-20)
(1.16445 0.30853 1.46946e-20)
(1.17356 0.294227 5.12047e-21)
(1.18107 0.279989 2.98297e-21)
(1.18708 0.266072 9.24883e-21)
(1.19195 0.252311 -1.18788e-20)
(1.19582 0.238683 6.47645e-21)
(1.19878 0.225249 -2.92821e-21)
(1.20085 0.212179 -1.92014e-20)
(1.20208 0.199753 -6.51986e-21)
(1.20263 0.187852 0)
(1.20262 0.176263 0)
(1.20209 0.164996 -1.35246e-20)
(1.20108 0.154056 1.04076e-20)
(1.19964 0.143541 1.67416e-21)
(1.19785 0.13356 5.11016e-21)
(1.19576 0.123985 -6.95728e-21)
(1.19338 0.11469 8.46809e-22)
(1.19071 0.105701 0)
(1.18779 0.0970412 4.26793e-22)
(1.18464 0.0887396 2.38448e-22)
(0.854323 0.270484 -1.07159e-22)
(0.863474 0.282947 -6.05582e-23)
(0.872946 0.295059 1.73406e-21)
(0.883045 0.307266 9.46927e-22)
(0.894196 0.318818 7.85073e-22)
(0.906549 0.329874 9.83852e-22)
(0.920377 0.340029 -1.77049e-21)
(0.935258 0.348631 -8.99908e-23)
(0.95159 0.356093 -2.10576e-22)
(0.969058 0.361846 -5.50229e-22)
(0.986894 0.365376 2.48548e-21)
(1.00523 0.366942 -3.31536e-22)
(1.02419 0.366656 -4.20136e-21)
(1.04265 0.364158 8.27237e-21)
(1.06011 0.35964 -5.60458e-21)
(1.07706 0.353401 8.29931e-21)
(1.09336 0.345542 -1.4912e-21)
(1.10838 0.336297 -2.87965e-20)
(1.12174 0.326024 2.0364e-20)
(1.13377 0.314888 -4.01503e-21)
(1.14465 0.302984 0)
(1.15435 0.290468 8.74549e-21)
(1.16258 0.277767 -1.32805e-20)
(1.1694 0.265135 -1.38313e-20)
(1.17512 0.252479 1.89757e-20)
(1.17987 0.239802 -1.47893e-20)
(1.18371 0.227179 2.29549e-20)
(1.18665 0.214779 2.72507e-21)
(1.18871 0.202873 2.77473e-21)
(1.19005 0.191379 -2.61095e-21)
(1.19078 0.180122 0)
(1.19095 0.169121 -2.71386e-21)
(1.19061 0.158389 2.94338e-21)
(1.18979 0.148025 7.20576e-21)
(1.18857 0.138142 -1.01943e-20)
(1.187 0.128625 7.19988e-21)
(1.1851 0.119363 -6.61854e-21)
(1.18288 0.110382 0)
(1.18036 0.101709 -1.48928e-21)
(1.1776 0.0933739 1.56983e-21)
(0.868941 0.257562 0)
(0.876973 0.268213 -2.18613e-21)
(0.88523 0.278562 -1.9296e-21)
(0.89395 0.288998 -9.02735e-22)
(0.903487 0.298922 -8.11773e-22)
(0.913967 0.308495 0)
(0.925639 0.317411 3.57607e-22)
(0.9382 0.325143 -2.23163e-22)
(0.951991 0.332064 -1.56731e-22)
(0.966815 0.33769 -3.21453e-22)
(0.982098 0.34155 -6.26979e-22)
(0.997957 0.343851 3.51238e-21)
(1.01453 0.344683 1.87655e-21)
(1.03091 0.34362 1.47922e-21)
(1.04666 0.340765 -1.47079e-21)
(1.06218 0.336379 3.22137e-22)
(1.07734 0.330516 4.36124e-21)
(1.09157 0.32329 0)
(1.10447 0.31496 -1.14825e-20)
(1.11632 0.305693 8.52454e-21)
(1.12724 0.295578 0)
(1.13715 0.284748 2.04867e-20)
(1.14579 0.273549 -1.77027e-20)
(1.15311 0.262222 3.54154e-21)
(1.15942 0.250723 1.57034e-20)
(1.16483 0.239073 -1.20967e-20)
(1.16935 0.227353 0)
(1.17299 0.215726 0)
(1.17574 0.204449 -4.23212e-21)
(1.17775 0.193473 2.33516e-21)
(1.17913 0.182655 9.19184e-21)
(1.17994 0.172023 -6.92197e-21)
(1.1802 0.161598 0)
(1.17995 0.15148 1.58251e-22)
(1.17926 0.141781 -8.48911e-21)
(1.17818 0.132406 4.83872e-21)
(1.17674 0.123253 0)
(1.17495 0.114353 -2.48174e-21)
(1.17284 0.105732 1.5836e-21)
(1.17044 0.0974238 -1.60918e-22)
(0.881379 0.24644 6.26714e-22)
(0.888534 0.255649 5.69385e-22)
(0.895854 0.264591 8.42477e-22)
(0.90353 0.273602 9.48844e-23)
(0.911854 0.282194 3.25342e-23)
(0.920934 0.290517 0)
(0.930982 0.298338 -1.34525e-22)
(0.941777 0.305226 3.74347e-23)
(0.953604 0.311518 -3.38507e-22)
(0.96634 0.31681 -2.5917e-22)
(0.97955 0.320684 -4.02404e-22)
(0.99334 0.323314 -2.82855e-21)
(1.00785 0.32478 -2.53391e-21)
(1.02235 0.324642 1.71552e-21)
(1.03649 0.322946 1.32712e-21)
(1.05057 0.319918 -4.57915e-21)
(1.0645 0.315577 1.32838e-21)
(1.07777 0.309955 -3.54832e-21)
(1.09002 0.30323 1.69246e-21)
(1.10143 0.295557 -1.14182e-20)
(1.11211 0.287013 9.70853e-21)
(1.12197 0.277705 -1.13536e-20)
(1.13072 0.267906 1.12083e-20)
(1.13831 0.257833 -1.54749e-20)
(1.14498 0.247476 1.54819e-20)
(1.15082 0.236867 -1.68838e-20)
(1.15583 0.226085 -2.97541e-22)
(1.16001 0.215285 1.74857e-20)
(1.16331 0.204704 -3.54108e-21)
(1.16586 0.194319 7.4511e-21)
(1.1678 0.184018 -3.7086e-21)
(1.16915 0.173833 0)
(1.16994 0.163793 0)
(1.17021 0.153997 2.11483e-21)
(1.17 0.144556 -3.99745e-21)
(1.16938 0.135391 -1.06625e-21)
(1.16837 0.126414 1.64628e-23)
(1.16699 0.117656 4.25978e-21)
(1.16527 0.109148 5.516e-22)
(1.16323 0.10092 1.44882e-22)
(0.892084 0.236736 -1.97886e-22)
(0.89853 0.244775 7.96243e-22)
(0.905105 0.252575 -6.41583e-22)
(0.911962 0.260423 -5.78949e-22)
(0.919343 0.267916 -5.95413e-22)
(0.927342 0.275191 5.46718e-22)
(0.936137 0.282065 -9.72973e-23)
(0.945559 0.288183 2.20226e-22)
(0.955848 0.293845 -1.15338e-22)
(0.966924 0.298717 6.72222e-22)
(0.978453 0.302436 -6.84117e-22)
(0.99053 0.305152 -1.64487e-21)
(1.00329 0.306936 -1.05778e-21)
(1.01615 0.307369 2.56767e-22)
(1.02882 0.306461 0)
(1.04155 0.304406 0)
(1.05425 0.301201 1.08455e-20)
(1.06651 0.296826 3.83441e-22)
(1.07798 0.291395 -4.3452e-22)
(1.08882 0.285046 3.94907e-21)
(1.09908 0.277842 8.35301e-21)
(1.10869 0.269865 -1.07757e-20)
(1.11736 0.261326 -5.12099e-21)
(1.125 0.252412 -4.08907e-22)
(1.13184 0.243138 -3.11742e-21)
(1.13792 0.233537 1.0779e-20)
(1.14326 0.223685 0)
(1.14781 0.213722 -2.53378e-22)
(1.15152 0.203867 0)
(1.15451 0.194114 -3.03442e-21)
(1.1569 0.184376 3.37236e-21)
(1.1587 0.174692 -6.6795e-21)
(1.15995 0.165093 1.00821e-20)
(1.16066 0.155675 -8.63873e-21)
(1.16088 0.146549 1.05845e-20)
(1.16067 0.137651 -3.56219e-21)
(1.16005 0.128905 8.83315e-22)
(1.15905 0.120343 3.65187e-21)
(1.15769 0.111997 -9.17352e-22)
(1.15599 0.103898 8.49282e-22)
(0.901383 0.228173 -3.25317e-22)
(0.907244 0.235249 -3.37429e-22)
(0.913209 0.242106 -4.89117e-22)
(0.919404 0.248995 1.07267e-21)
(0.926033 0.255574 2.59787e-21)
(0.933173 0.261967 -1.35339e-21)
(0.940977 0.268028 0)
(0.94931 0.273461 3.0773e-22)
(0.958374 0.278533 -2.15799e-22)
(0.968118 0.282965 0)
(0.978276 0.286446 3.27838e-22)
(0.988937 0.289106 1.25059e-21)
(1.00022 0.291013 2.20316e-21)
(1.01167 0.291778 -8.06874e-22)
(1.02303 0.291392 -1.84115e-21)
(1.03452 0.290023 4.95562e-21)
(1.04608 0.287654 2.21244e-21)
(1.05734 0.284232 -9.38435e-21)
(1.068 0.279828 -3.33053e-22)
(1.07818 0.274558 -2.84202e-21)
(1.08792 0.268475 6.82845e-21)
(1.09715 0.261638 -3.51281e-21)
(1.10558 0.254204 -4.07214e-21)
(1.11313 0.246334 8.36565e-21)
(1.11998 0.238055 -1.26267e-20)
(1.12616 0.229399 0)
(1.13167 0.220436 9.70375e-21)
(1.13646 0.211291 -1.2435e-20)
(1.14046 0.20216 0)
(1.14377 0.193054 2.77749e-21)
(1.1465 0.183903 -5.53419e-21)
(1.14867 0.174748 5.6312e-21)
(1.15029 0.165624 -3.01451e-21)
(1.15137 0.156624 1.54003e-21)
(1.15196 0.147855 -1.00776e-22)
(1.15211 0.139266 -4.55024e-21)
(1.15186 0.130794 2.30355e-21)
(1.1512 0.12247 1.5699e-21)
(1.15016 0.114328 -2.38456e-21)
(1.14878 0.106399 1.03795e-21)
(0.909527 0.220547 -2.97317e-22)
(0.914895 0.226818 -8.00437e-22)
(0.920349 0.232888 1.53001e-21)
(0.925998 0.238974 -8.82056e-22)
(0.93201 0.244786 -7.51432e-22)
(0.938453 0.250433 1.10981e-21)
(0.945454 0.255797 -8.68397e-22)
(0.952906 0.260629 -1.9859e-22)
(0.960979 0.265164 1.08423e-22)
(0.969637 0.26917 -3.44602e-22)
(0.978669 0.272379 4.53722e-23)
(0.988152 0.274907 -5.27678e-22)
(0.998195 0.276815 1.7456e-21)
(1.00843 0.277755 4.51419e-22)
(1.01865 0.277706 -2.30947e-21)
(1.02903 0.276812 1.56761e-21)
(1.03954 0.275051 2.07863e-21)
(1.04985 0.272354 -1.59328e-21)
(1.05971 0.268755 -2.35961e-21)
(1.0692 0.264357 2.61808e-21)
(1.07837 0.259198 -2.58769e-21)
(1.08714 0.253322 -3.13068e-21)
(1.09524 0.246842 -6.57835e-21)
(1.10259 0.239894 9.92161e-21)
(1.10933 0.23251 3.81332e-21)
(1.1155 0.224721 -3.67931e-21)
(1.12106 0.216587 8.19351e-21)
(1.12597 0.208219 -8.30167e-21)
(1.13015 0.199791 0)
(1.13368 0.191322 -9.15299e-21)
(1.13667 0.18276 9.30865e-21)
(1.13911 0.174145 -4.87369e-21)
(1.14103 0.165513 7.36279e-21)
(1.14242 0.156954 7.59716e-21)
(1.14332 0.148569 -6.55624e-21)
(1.14379 0.14032 1.36919e-21)
(1.14384 0.132153 0)
(1.14348 0.1241 -2.72218e-21)
(1.14275 0.116195 2.4252e-21)
(1.14165 0.108469 -4.87856e-23)
(0.916708 0.213701 5.52996e-22)
(0.921654 0.219292 4.39885e-22)
(0.926675 0.224696 3.55398e-22)
(0.931862 0.230104 0)
(0.937358 0.235266 0)
(0.943222 0.240278 0)
(0.949562 0.245042 -3.10672e-22)
(0.956287 0.249348 5.68151e-22)
(0.963544 0.253404 0)
(0.971306 0.257012 4.34839e-23)
(0.979401 0.259943 0)
(0.987899 0.262301 -9.52958e-22)
(0.996897 0.264142 1.57854e-21)
(1.00609 0.265154 -7.34747e-22)
(1.01531 0.265314 -1.04114e-21)
(1.02472 0.264745 0)
(1.03427 0.263423 -3.15714e-21)
(1.04371 0.261271 3.04088e-21)
(1.0528 0.258302 3.85714e-21)
(1.06162 0.254602 -3.90673e-21)
(1.0702 0.2502 4.55746e-21)
(1.07846 0.245125 2.36226e-21)
(1.08619 0.23946 -5.5258e-21)
(1.09326 0.233316 5.31969e-21)
(1.09981 0.226726 -9.19277e-21)
(1.10587 0.219717 2.21198e-23)
(1.11139 0.212343 1.00082e-20)
(1.11633 0.204699 7.27475e-21)
(1.1206 0.196936 -1.85675e-20)
(1.12427 0.189082 1.55194e-20)
(1.12742 0.181096 2.08994e-21)
(1.13007 0.173016 -6.25259e-21)
(1.13221 0.16488 -2.2283e-21)
(1.13386 0.156771 -2.28751e-21)
(1.13501 0.148785 0)
(1.13573 0.140895 1.11269e-21)
(1.13604 0.133053 1.13215e-21)
(1.13596 0.125295 0)
(1.13548 0.117652 6.01535e-22)
(1.13465 0.110154 -4.00024e-23)
(0.923079 0.207513 3.38284e-22)
(0.927658 0.212524 9.82069e-22)
(0.932304 0.21736 -7.50137e-22)
(0.937095 0.222189 -5.95129e-22)
(0.942153 0.226795 0)
(0.947528 0.231263 0)
(0.953311 0.235509 0)
(0.959427 0.239355 0)
(0.966002 0.242985 6.04416e-23)
(0.973015 0.246229 -1.34184e-22)
(0.980323 0.248892 0)
(0.987989 0.251065 -7.87592e-22)
(0.996098 0.252799 7.95185e-22)
(1.0044 0.25382 2.13391e-21)
(1.01276 0.254101 -3.24304e-21)
(1.0213 0.25375 1.80742e-21)
(1.02999 0.252744 -1.23692e-21)
(1.03863 0.251002 1.29149e-21)
(1.04701 0.248524 -3.23662e-21)
(1.05518 0.245381 1.63472e-21)
(1.06318 0.241596 -2.01107e-21)
(1.07094 0.237187 -2.19747e-21)
(1.07825 0.232212 0)
(1.085 0.226762 -4.89436e-21)
(1.09131 0.220868 2.72789e-21)
(1.09719 0.214556 2.89702e-21)
(1.10261 0.207868 -2.45675e-22)
(1.1075 0.200887 2.95484e-21)
(1.11179 0.193746 6.44681e-21)
(1.11552 0.186475 -3.22114e-21)
(1.11878 0.179041 -1.80601e-21)
(1.12156 0.171481 -1.31339e-22)
(1.12387 0.163833 7.481e-21)
(1.1257 0.156172 -7.60715e-21)
(1.12705 0.148591 0)
(1.12798 0.141068 -2.00428e-21)
(1.12852 0.133565 -1.05306e-21)
(1.12866 0.126115 0)
(1.12841 0.118751 -2.71105e-22)
(1.12781 0.111502 0)
(0.928761 0.201888 -1.36545e-22)
(0.933017 0.206398 -1.05715e-21)
(0.937335 0.210745 -2.52129e-22)
(0.941782 0.215077 1.13935e-21)
(0.946461 0.219204 0)
(0.951416 0.223201 -1.00553e-21)
(0.956724 0.226999 6.57898e-22)
(0.962323 0.230443 -2.70919e-22)
(0.968319 0.233694 2.72312e-22)
(0.974697 0.23661 3.01739e-23)
(0.981337 0.239021 0)
(0.988294 0.241006 0)
(0.995643 0.242615 0)
(1.00318 0.243605 -1.03804e-21)
(1.01078 0.243948 1.50475e-21)
(1.01856 0.243741 -1.52486e-21)
(1.0265 0.242959 0)
(1.03441 0.241526 -3.39888e-21)
(1.04213 0.23943 -5.48636e-21)
(1.04969 0.236733 1.31945e-20)
(1.05713 0.23345 -6.19692e-21)
(1.06439 0.229593 0)
(1.07127 0.2252 0)
(1.07768 0.220346 2.18153e-21)
(1.08372 0.215059 6.70294e-21)
(1.08938 0.209362 -4.63277e-21)
(1.09464 0.203289 8.01561e-23)
(1.09943 0.196911 -1.07767e-20)
(1.10368 0.190343 8.19218e-21)
(1.10742 0.183616 9.49019e-23)
(1.11073 0.176704 0)
(1.11359 0.169643 -1.62243e-21)
(1.116 0.162466 1.56226e-21)
(1.11796 0.155244 1.73948e-21)
(1.11947 0.148065 3.41503e-23)
(1.12057 0.140911 -2.57743e-21)
(1.12128 0.133752 1.78648e-21)
(1.12161 0.12662 -3.62584e-21)
(1.12156 0.119546 2.28744e-21)
(1.12115 0.112559 0)
(0.933852 0.196749 -3.38459e-23)
(0.937821 0.200824 -3.2038e-22)
(0.941849 0.204746 0)
(0.945993 0.208646 4.48188e-22)
(0.95034 0.212358 0)
(0.95493 0.215946 1.51789e-21)
(0.959828 0.219353 -1.65779e-22)
(0.964981 0.222443 -3.33097e-22)
(0.97048 0.225361 3.73633e-22)
(0.976314 0.227982 0)
(0.98238 0.230158 -2.39424e-22)
(0.988726 0.231963 -5.6765e-22)
(0.995421 0.23344 7.17395e-22)
(1.00229 0.234374 1.36167e-21)
(1.00922 0.234741 -2.10401e-21)
(1.01633 0.234624 0)
(1.0236 0.234002 0)
(1.03087 0.2328 1.82435e-22)
(1.03798 0.231003 4.69224e-21)
(1.04498 0.228662 -4.74586e-21)
(1.05189 0.225789 -3.12141e-21)
(1.05866 0.222389 -3.39377e-21)
(1.06512 0.218487 3.22126e-21)
(1.07119 0.214143 0)
(1.07693 0.209385 5.8637e-21)
(1.08235 0.204228 -1.63592e-20)
(1.08741 0.198703 1.07561e-20)
(1.09207 0.192869 -9.24744e-21)
(1.09623 0.186825 4.72883e-21)
(1.09994 0.180601 -1.8848e-22)
(1.10324 0.174178 5.29366e-21)
(1.10613 0.167587 -1.0881e-20)
(1.10861 0.160861 4.12421e-21)
(1.11066 0.154065 -5.76479e-21)
(1.11228 0.147278 4.51776e-21)
(1.1135 0.140489 -3.0806e-21)
(1.11436 0.133673 3.11915e-21)
(1.11484 0.126861 2.37056e-21)
(1.11495 0.120083 -2.4306e-21)
(1.11471 0.113366 0)
(0.938432 0.192031 0)
(0.942145 0.195726 0)
(0.945914 0.199278 -1.1616e-23)
(0.949787 0.202801 -4.89257e-22)
(0.953842 0.206149 5.81456e-22)
(0.958109 0.209381 -2.23543e-21)
(0.96265 0.212445 8.95957e-23)
(0.967413 0.215224 -2.91409e-22)
(0.972481 0.217846 -2.88977e-22)
(0.977843 0.220202 -2.36145e-24)
(0.983411 0.222165 3.22289e-22)
(0.989228 0.223798 7.64072e-23)
(0.995353 0.225142 -7.64952e-22)
(1.00164 0.226008 4.43952e-22)
(1.00799 0.226373 3.06759e-21)
(1.01451 0.226309 -2.24566e-21)
(1.02118 0.225799 -1.72358e-21)
(1.02786 0.224772 6.54428e-21)
(1.03442 0.223209 5.8894e-21)
(1.0409 0.221154 -8.60061e-21)
(1.04732 0.218617 7.05715e-21)
(1.05363 0.215597 -4.82122e-21)
(1.05969 0.212109 3.00151e-21)
(1.0654 0.208203 -2.97998e-21)
(1.07084 0.203902 3.19897e-21)
(1.076 0.19922 0)
(1.08085 0.19418 0)
(1.08534 0.188834 2.07283e-21)
(1.08939 0.183266 0)
(1.09302 0.177505 -2.2761e-21)
(1.09629 0.171536 0)
(1.09917 0.165387 7.11485e-21)
(1.10168 0.159088 -2.50099e-21)
(1.10378 0.152697 1.32466e-21)
(1.10547 0.14629 1.3672e-21)
(1.10679 0.139858 0)
(1.10775 0.13338 0)
(1.10835 0.126886 -7.26799e-22)
(1.1086 0.120405 1.08547e-21)
(1.1085 0.113963 -7.23731e-22)
(0.942567 0.187684 2.52964e-22)
(0.94605 0.191045 0)
(0.949585 0.19427 4.54464e-23)
(0.953216 0.197462 3.82936e-22)
(0.957008 0.200492 -1.44276e-21)
(0.96099 0.20341 1.94575e-21)
(0.965214 0.206173 -3.93224e-22)
(0.969635 0.208677 0)
(0.974324 0.211035 1.11323e-22)
(0.979273 0.213155 4.10204e-23)
(0.984405 0.214923 2.00489e-22)
(0.989759 0.216397 -2.50966e-23)
(0.995386 0.217613 -7.10274e-22)
(1.00116 0.218405 1.22821e-21)
(1.007 0.21875 9.18048e-22)
(1.01299 0.218715 0)
(1.01912 0.218282 -1.31828e-21)
(1.02528 0.217386 -3.23582e-21)
(1.03135 0.216008 -2.10894e-21)
(1.03735 0.214185 5.67184e-21)
(1.04331 0.211922 -3.96907e-21)
(1.04919 0.209219 2.38426e-21)
(1.05485 0.206081 0)
(1.06023 0.202551 2.81187e-21)
(1.06536 0.198647 -3.01774e-21)
(1.07026 0.194381 0)
(1.07489 0.189772 3.17435e-21)
(1.07919 0.184862 7.08993e-21)
(1.0831 0.179725 -1.111e-20)
(1.08663 0.174388 7.54921e-21)
(1.08983 0.168837 4.06208e-21)
(1.09269 0.1631 -6.30021e-21)
(1.09518 0.157202 -2.25207e-21)
(1.0973 0.151198 -2.17816e-21)
(1.09904 0.145154 0)
(1.10042 0.139067 0)
(1.10146 0.132919 0)
(1.10216 0.126738 6.02844e-22)
(1.10251 0.120551 -6.33673e-22)
(1.10253 0.114384 6.17505e-22)
(0.946313 0.183665 -4.04319e-22)
(0.949586 0.18673 3.94173e-22)
(0.95291 0.189666 -3.48921e-22)
(0.956321 0.192566 -2.87223e-22)
(0.959878 0.195314 8.43019e-22)
(0.963604 0.197956 -8.52981e-22)
(0.967545 0.200452 3.07381e-23)
(0.971661 0.202712 -1.93693e-22)
(0.976016 0.204837 -1.01933e-22)
(0.9806 0.206745 -1.93981e-22)
(0.985348 0.208336 -2.6784e-22)
(0.990293 0.209663 -2.98652e-22)
(0.995481 0.210758 7.40346e-22)
(1.0008 0.211473 -1.38355e-21)
(1.00619 0.21179 6.47475e-22)
(1.01171 0.211766 2.02943e-21)
(1.01736 0.211385 -2.04743e-21)
(1.02305 0.210589 1.38703e-21)
(1.02866 0.209357 3.20643e-22)
(1.03423 0.207721 -1.40071e-21)
(1.03977 0.205686 0)
(1.04524 0.203248 0)
(1.05054 0.200408 0)
(1.05558 0.197199 4.85999e-21)
(1.06042 0.193641 -4.92012e-21)
(1.06506 0.18974 0)
(1.06945 0.185512 -3.00133e-21)
(1.07357 0.180992 6.22542e-21)
(1.07732 0.176245 -9.66605e-21)
(1.08074 0.171294 0)
(1.08385 0.166129 3.57765e-21)
(1.08664 0.160773 -1.85455e-21)
(1.0891 0.155251 -3.86885e-21)
(1.09122 0.14961 5.99221e-21)
(1.09297 0.143913 -2.14787e-21)
(1.09439 0.138158 5.2158e-21)
(1.09549 0.132329 0)
(1.09625 0.126453 -3.52908e-23)
(1.09669 0.120556 2.72283e-22)
(1.09681 0.114662 -1.59642e-23)
(0.949716 0.179938 2.13518e-22)
(0.952798 0.182738 -2.87837e-23)
(0.955929 0.185418 3.34089e-22)
(0.959141 0.188059 5.30137e-22)
(0.962483 0.190557 0)
(0.965979 0.192953 7.11322e-22)
(0.969665 0.195213 -2.59365e-22)
(0.973509 0.197257 4.10707e-22)
(0.977565 0.199173 1.41393e-22)
(0.981824 0.200891 2.0192e-22)
(0.98623 0.202323 -2.03456e-22)
(0.990812 0.203515 -7.03186e-22)
(0.99561 0.204496 8.21664e-22)
(1.00053 0.205136 -2.18824e-21)
(1.00551 0.205418 4.42616e-22)
(1.01061 0.205393 1.51496e-21)
(1.01584 0.205047 -9.39832e-22)
(1.0211 0.204327 -1.08869e-21)
(1.0263 0.203211 2.70243e-21)
(1.03147 0.201729 -1.3435e-21)
(1.03662 0.199883 1.53957e-21)
(1.04172 0.197668 0)
(1.04666 0.195081 0)
(1.0514 0.192152 0)
(1.05595 0.188894 4.58167e-21)
(1.06033 0.185313 -2.05585e-21)
(1.06449 0.181423 -4.95687e-21)
(1.0684 0.177252 -2.59903e-21)
(1.072 0.172857 -5.77809e-21)
(1.07528 0.168257 8.73208e-21)
(1.07829 0.163446 6.32282e-21)
(1.08101 0.158443 -9.83547e-21)
(1.08342 0.153271 4.98993e-21)
(1.08551 0.147972 0)
(1.08726 0.142604 1.7838e-21)
(1.08869 0.137165 -6.57314e-21)
(1.08982 0.131643 9.76516e-22)
(1.09064 0.126062 -9.80839e-22)
(1.09113 0.120448 -9.9976e-22)
(1.09133 0.114822 5.59019e-22)
(0.952815 0.176471 -3.50641e-22)
(0.955723 0.179036 -2.50679e-23)
(0.958676 0.181487 5.45544e-22)
(0.961705 0.183897 -9.54113e-22)
(0.964853 0.186172 4.4868e-22)
(0.968139 0.18835 0)
(0.971596 0.190399 0)
(0.975193 0.192249 0)
(0.97898 0.19398 -6.21417e-23)
(0.982949 0.195527 -1.45545e-22)
(0.987049 0.196814 5.92077e-22)
(0.991305 0.197883 -2.94427e-22)
(0.995755 0.198759 -1.09379e-21)
(1.00031 0.199327 8.60829e-22)
(1.00493 0.199571 1.33428e-21)
(1.00966 0.199538 -1.3463e-21)
(1.0145 0.199214 8.95705e-22)
(1.01937 0.198551 1.0371e-21)
(1.0242 0.19753 2.19016e-21)
(1.029 0.196174 1.34193e-21)
(1.03379 0.194486 -4.15638e-21)
(1.03855 0.19246 3.21925e-21)
(1.04317 0.190091 -1.62629e-21)
(1.0476 0.187402 -3.77453e-21)
(1.05188 0.184407 9.76841e-21)
(1.05601 0.181109 -1.9118e-21)
(1.05995 0.177519 2.16994e-21)
(1.06366 0.173661 2.469e-21)
(1.06709 0.169582 5.11459e-21)
(1.07023 0.165303 -8.28062e-24)
(1.07313 0.160816 -2.76587e-21)
(1.07575 0.156139 -1.49645e-21)
(1.0781 0.151292 -1.55748e-21)
(1.08015 0.146314 0)
(1.08188 0.141255 -3.26195e-21)
(1.08331 0.136117 -4.56773e-23)
(1.08445 0.130888 2.55913e-21)
(1.0853 0.125593 3.93517e-21)
(1.08584 0.120253 -2.21685e-21)
(1.0861 0.11489 8.51724e-22)
(0.955646 0.173239 8.01683e-22)
(0.958392 0.175593 -4.48486e-22)
(0.961182 0.177838 -7.58089e-22)
(0.964043 0.180041 2.32626e-22)
(0.967012 0.182117 0)
(0.970105 0.1841 0)
(0.973353 0.185961 0)
(0.976727 0.187638 1.21078e-22)
(0.980271 0.189202 2.89533e-25)
(0.983978 0.190596 -4.32862e-23)
(0.987802 0.191753 0)
(0.991766 0.192709 7.9884e-22)
(0.995903 0.193488 -4.42151e-22)
(1.00014 0.193988 -7.74265e-22)
(1.00443 0.194194 1.19258e-21)
(1.00882 0.194147 -3.88799e-21)
(1.01331 0.193837 1.42716e-21)
(1.01783 0.193218 -1.71794e-21)
(1.02232 0.192273 -2.0899e-21)
(1.02679 0.191022 -2.36151e-21)
(1.03125 0.189467 2.38791e-21)
(1.03568 0.187602 0)
(1.04 0.185422 -1.55833e-21)
(1.04416 0.182943 -3.34672e-21)
(1.04818 0.180178 1.57417e-21)
(1.05206 0.17713 0)
(1.05578 0.173806 -2.066e-21)
(1.05929 0.170228 -2.04135e-21)
(1.06255 0.166437 0)
(1.06555 0.162449 -2.42729e-21)
(1.06833 0.158259 -7.52607e-21)
(1.07086 0.153883 7.77553e-21)
(1.07312 0.149337 -5.39597e-21)
(1.07511 0.144658 1.40293e-21)
(1.07681 0.139891 0)
(1.07823 0.135038 -2.99124e-21)
(1.07937 0.13009 3.02397e-21)
(1.08024 0.125067 0)
(1.08081 0.119992 -2.04989e-22)
(1.08111 0.114884 0)
(0.958235 0.170219 -6.54618e-22)
(0.960832 0.172383 -2.3878e-22)
(0.963472 0.174444 2.38844e-22)
(0.966177 0.17646 0)
(0.968981 0.178358 0)
(0.971898 0.180165 -2.15464e-22)
(0.974955 0.181857 -7.35162e-23)
(0.978125 0.183379 1.75001e-22)
(0.981448 0.184793 -6.24391e-23)
(0.984917 0.18605 1.71858e-22)
(0.988491 0.187089 -1.72874e-22)
(0.992191 0.187943 0)
(0.996045 0.188633 -7.45836e-23)
(0.999988 0.189069 1.46911e-21)
(1.00398 0.189237 1.07073e-21)