/*--------------------------------*- C++ -*----------------------------------*\
| =========                 |                                                 |
| \\      /  F ield         | OpenFOAM: The Open Source CFD Toolbox           |
|  \\    /   O peration     | Version:  3.0.1                                 |
|   \\  /    A nd           | Web:      www.OpenFOAM.org                      |
|    \\/     M anipulation  |                                                 |
\*---------------------------------------------------------------------------*/
FoamFile
{
    version     2.0;
    format      ascii;
    class       volScalarField;
    location    "250";
    object      nuTilda;
}
// * * * * * * * * * * * * * * * * * * * * * * * * * * * * * * * * * * * * * //

dimensions      [0 2 -1 0 0 0 0];

internalField   nonuniform List<scalar> 
58000
(
0.000804446
0.000721215
0.000643305
0.000580272
0.0005313
0.000492754
0.00046631
0.000444448
0.000429576
0.000420267
0.000413322
0.000409095
0.000407686
0.000406173
0.00040479
0.000404253
0.000404627
0.000405562
0.000406826
0.000408471
0.000410549
0.00041284
0.000415335
0.000417811
0.00042049
0.000423029
0.000425582
0.000428107
0.000430452
0.000432764
0.000434781
0.000436596
0.000438148
0.00043937
0.000440335
0.000440524
0.000439685
0.000438408
0.000437051
0.000437384
0.0030784
0.00273887
0.00236472
0.00202477
0.00175155
0.00153614
0.0013723
0.0012419
0.0011419
0.00106748
0.00100869
0.000964141
0.000931093
0.00090396
0.000878786
0.000858922
0.000844102
0.000831233
0.000819179
0.000809439
0.000802537
0.000796696
0.000791365
0.000786246
0.000783029
0.000780155
0.000777307
0.000774424
0.000771325
0.00076901
0.000766774
0.000763122
0.000758161
0.00075218
0.000745644
0.000737616
0.00072884
0.000720194
0.000712055
0.00070897
0.0054455
0.00503246
0.00455322
0.00405168
0.00359602
0.00320292
0.00289075
0.00263448
0.00242829
0.0022683
0.00213899
0.00203277
0.00195289
0.00188896
0.00183362
0.00179076
0.00175872
0.00173217
0.0017087
0.00169018
0.00167683
0.00166547
0.00165485
0.00164439
0.0016368
0.00162879
0.00161953
0.00160928
0.00159807
0.00158854
0.001579
0.00156896
0.00155841
0.001547
0.00153452
0.00151939
0.00150214
0.00148459
0.00146852
0.00146061
0.00782586
0.00736571
0.00681062
0.00622662
0.00566656
0.00514464
0.00470331
0.00432505
0.00401077
0.00376087
0.0035511
0.00337631
0.00324116
0.00313104
0.00303567
0.00295994
0.0029013
0.00285195
0.0028085
0.00277335
0.00274651
0.00272326
0.00269997
0.00267632
0.00265773
0.00264088
0.00262385
0.00260634
0.00258781
0.00257103
0.00255377
0.00253516
0.00251532
0.00249434
0.00247321
0.00244909
0.00242225
0.00239475
0.00236901
0.00235191
0.0101877
0.00970217
0.00910755
0.00847246
0.00784172
0.00724077
0.00670802
0.00623083
0.00581804
0.00547902
0.00518737
0.00493903
0.00474243
0.00457948
0.00443684
0.00432153
0.00423037
0.00415266
0.00408316
0.00402523
0.00397819
0.00393644
0.00389725
0.00385938
0.00382951
0.00380145
0.00377268
0.00374312
0.00371264
0.00368645
0.00365969
0.003631
0.00360044
0.00356823
0.00353632
0.00350124
0.00346291
0.0034236
0.00338626
0.00335752
0.01252
0.0120195
0.011404
0.0107367
0.0100664
0.00941059
0.00881372
0.00826589
0.00777492
0.00735891
0.0069924
0.00667301
0.00641405
0.00619582
0.00600258
0.00584304
0.00571413
0.00560313
0.00550203
0.00541575
0.00534558
0.00528348
0.00522618
0.00517
0.00512273
0.00507983
0.0050375
0.0049953
0.00495158
0.00491178
0.00487288
0.00483303
0.00479064
0.00474595
0.00470161
0.00465394
0.00460259
0.00454997
0.00449939
0.00445698
0.0148208
0.0143117
0.0136862
0.0130023
0.0123091
0.0116178
0.0109772
0.010374
0.00982406
0.00934706
0.00891767
0.00853366
0.00821543
0.00794289
0.0076996
0.00749407
0.00732432
0.00717528
0.00704012
0.00692428
0.00682949
0.00674376
0.00666281
0.00658583
0.00652142
0.00646209
0.00640349
0.00634489
0.00628643
0.00623255
0.00617988
0.00612653
0.00607026
0.00601136
0.00595294
0.00589119
0.0058255
0.00575829
0.00569307
0.0056354
0.0170894
0.0165756
0.0159465
0.0152554
0.0145502
0.013838
0.0131669
0.0125268
0.0119321
0.0114032
0.0109198
0.0104826
0.0101124
0.00978929
0.00949531
0.00924447
0.00903492
0.00884912
0.00867945
0.00853268
0.00840868
0.00829734
0.00819267
0.00809378
0.0080081
0.00793006
0.00785452
0.00777876
0.00770265
0.0076335
0.00756578
0.00749714
0.00742547
0.00735109
0.00727733
0.00720038
0.00711927
0.00703643
0.00695543
0.00688125
0.0193259
0.01881
0.018181
0.0174883
0.016778
0.0160554
0.0153655
0.0147004
0.0140709
0.0135051
0.0129793
0.012495
0.0120784
0.0117097
0.0113705
0.0110772
0.0108299
0.0106077
0.0104028
0.0102227
0.0100695
0.00993243
0.00980266
0.00967896
0.00957197
0.00947375
0.00937792
0.00928406
0.00918978
0.00910351
0.00901897
0.00893261
0.00884484
0.0087543
0.00866437
0.00857131
0.0084739
0.00837456
0.00827685
0.00818522
0.0215308
0.0210146
0.0203883
0.0196974
0.0189847
0.0182598
0.0175601
0.0168794
0.0162263
0.0156316
0.0150707
0.0145504
0.0140955
0.0136871
0.0133072
0.0129739
0.0126877
0.0124298
0.0121913
0.0119808
0.0117984
0.0116331
0.0114783
0.01133
0.011199
0.0110801
0.0109638
0.01085
0.0107362
0.0106314
0.0105291
0.0104252
0.0103201
0.0102125
0.0101055
0.00999542
0.00988094
0.00976439
0.00964927
0.00953953
0.0237048
0.0231897
0.0225679
0.0218818
0.0211718
0.020447
0.0197425
0.0190522
0.0183838
0.0177667
0.0171811
0.0166315
0.0161445
0.0157006
0.0152847
0.0149159
0.0145954
0.0143052
0.0140342
0.0137916
0.0135802
0.0133883
0.0132065
0.0130341
0.0128798
0.0127378
0.0126008
0.0124653
0.0123315
0.0122067
0.0120869
0.0119651
0.0118424
0.0117181
0.0115929
0.011465
0.0113329
0.0111987
0.0110657
0.0109375
0.0258486
0.0253354
0.0247193
0.0240399
0.0233352
0.0226137
0.0219077
0.0212108
0.0205345
0.019903
0.0192984
0.0187239
0.0182099
0.0177391
0.0172935
0.0168935
0.0165414
0.0162187
0.0159168
0.0156457
0.0154064
0.0151866
0.0149791
0.0147806
0.0146034
0.0144391
0.0142807
0.0141238
0.013968
0.0138242
0.0136858
0.013545
0.0134042
0.0132618
0.0131186
0.012973
0.0128231
0.0126711
0.0125202
0.0123735
0.0279631
0.0274526
0.0268428
0.0261711
0.0254734
0.0247574
0.0240535
0.0233549
0.0226737
0.0220325
0.0214144
0.0208219
0.0202864
0.0197919
0.0193202
0.0188928
0.018513
0.0181621
0.0178313
0.0175308
0.0172655
0.0170197
0.0167858
0.016563
0.016361
0.0161735
0.0159942
0.0158166
0.0156401
0.0154765
0.0153191
0.0151591
0.0149994
0.0148385
0.0146772
0.0145138
0.0143462
0.0141763
0.0140075
0.0138426
0.03005
0.0295421
0.0289388
0.0282755
0.0275858
0.0268769
0.0261772
0.0254801
0.024797
0.0241494
0.0235217
0.0229162
0.022364
0.0218493
0.0213539
0.0209022
0.0204977
0.0201229
0.0197666
0.0194398
0.0191475
0.0188776
0.0186196
0.018373
0.0181474
0.0179366
0.0177343
0.0175367
0.0173399
0.0171566
0.0169801
0.016801
0.0166216
0.0164427
0.0162636
0.0160825
0.0158973
0.0157097
0.0155232
0.0153405
0.032111
0.0316051
0.0310084
0.0303537
0.0296726
0.0289718
0.0282778
0.0275841
0.0269016
0.0262503
0.0256146
0.025001
0.0244361
0.0239041
0.023392
0.0229205
0.0224938
0.0220941
0.0217135
0.0213635
0.0210468
0.020752
0.0204715
0.0202019
0.0199537
0.019721
0.0194962
0.0192786
0.019062
0.0188581
0.0186631
0.0184657
0.0182678
0.0180708
0.0178738
0.017675
0.0174722
0.0172672
0.0170633
0.0168634
0.0341437
0.0336417
0.0330522
0.0324064
0.0317344
0.0310422
0.030355
0.0296663
0.0289864
0.0283341
0.0276943
0.0270741
0.0264993
0.025955
0.0254288
0.0249407
0.024495
0.024074
0.0236703
0.0232959
0.0229554
0.0226391
0.0223363
0.0220418
0.0217725
0.0215211
0.021276
0.0210373
0.0208021
0.0205789
0.020364
0.0201491
0.0199334
0.0197185
0.0195037
0.0192874
0.0190672
0.018845
0.0186243
0.0184082
0.0361518
0.0356538
0.0350717
0.0344351
0.0337724
0.0330892
0.0324093
0.0317266
0.0310506
0.0303993
0.0297578
0.0291332
0.0285494
0.0279967
0.0274595
0.0269576
0.0264955
0.0260557
0.0256298
0.025235
0.024873
0.0245336
0.0242093
0.0238951
0.0236055
0.0233349
0.0230701
0.0228114
0.0225576
0.0223154
0.0220816
0.0218487
0.021615
0.0213822
0.0211497
0.0209161
0.0206788
0.0204399
0.0202031
0.0199719
0.0381378
0.0376437
0.037069
0.0364416
0.0357882
0.035114
0.0344418
0.0337656
0.0330945
0.0324455
0.0318043
0.0311775
0.0305882
0.0300281
0.0294816
0.0289679
0.0284915
0.0280354
0.0275908
0.0271754
0.0267951
0.0264356
0.0260918
0.0257576
0.0254481
0.0251586
0.0248746
0.0245966
0.0243245
0.0240638
0.0238115
0.0235607
0.0233091
0.0230586
0.0228086
0.0225578
0.0223039
0.022049
0.0217969
0.0215521
0.0401036
0.0396135
0.039046
0.0384277
0.0377838
0.0371183
0.0364538
0.0357845
0.0351189
0.0344731
0.0338334
0.0332061
0.0326132
0.0320473
0.0314932
0.0309693
0.0304802
0.0300101
0.0295494
0.0291164
0.028719
0.02834
0.0279756
0.0276241
0.0272961
0.026988
0.0266856
0.0263892
0.0260993
0.0258206
0.0255502
0.0252818
0.0250126
0.0247446
0.0244774
0.0242099
0.0239399
0.0236696
0.0234036
0.0231469
0.0420513
0.0415651
0.0410045
0.0403952
0.0397618
0.0391039
0.0384468
0.0377845
0.0371248
0.036483
0.0358457
0.0352191
0.0346241
0.0340538
0.0334935
0.0329608
0.0324592
0.0319774
0.0315031
0.0310542
0.0306386
0.0302436
0.0298616
0.0294931
0.0291469
0.0288196
0.0285003
0.0281865
0.0278792
0.027583
0.027295
0.0270094
0.0267228
0.0264374
0.0261535
0.0258699
0.0255845
0.0252999
0.0250211
0.0247547
0.0439831
0.0435006
0.0429465
0.0423454
0.0417208
0.0410717
0.0404224
0.0397672
0.0391137
0.0384764
0.0378424
0.0372172
0.0366211
0.0360475
0.0354824
0.0349427
0.0344316
0.0339373
0.0334511
0.0329881
0.0325568
0.0321459
0.0317472
0.0313622
0.0309988
0.0306538
0.0303176
0.0299865
0.0296619
0.0293486
0.0290437
0.0287413
0.0284377
0.0281344
0.0278349
0.0275361
0.0272361
0.0269381
0.0266483
0.0263746
0.0459011
0.0454222
0.0448744
0.044281
0.0436644
0.0430239
0.0423824
0.0417345
0.0410873
0.0404549
0.0398249
0.0392017
0.0386053
0.0380289
0.0374597
0.0369145
0.0363972
0.035893
0.0353936
0.0349169
0.0344721
0.0340451
0.0336304
0.0332292
0.0328497
0.0324881
0.0321356
0.0317875
0.0314449
0.0311158
0.0307947
0.0304761
0.0301561
0.0298364
0.0295212
0.0292073
0.0288933
0.0285831
0.0282839
0.0280058
0.0478073
0.0473319
0.0467903
0.0462045
0.0455952
0.0449627
0.0443289
0.0436885
0.0430472
0.0424199
0.0417953
0.0411737
0.0405786
0.0399988
0.0394257
0.0388751
0.0383509
0.037838
0.0373279
0.0368386
0.0363788
0.0359389
0.0355095
0.0350919
0.0346981
0.0343212
0.033953
0.0335887
0.0332296
0.0328845
0.0325473
0.0322126
0.0318768
0.0315417
0.031211
0.0308825
0.0305551
0.0302338
0.0299272
0.029648
0.0497034
0.0492315
0.048696
0.0481185
0.0475152
0.0468901
0.0462638
0.0456317
0.0449952
0.0443721
0.0437515
0.0431325
0.0425382
0.041957
0.041381
0.0408256
0.0402946
0.0397736
0.0392541
0.0387536
0.0382811
0.0378282
0.037385
0.0369528
0.0365444
0.0361525
0.0357692
0.0353893
0.0350142
0.0346534
0.0343003
0.03395
0.033599
0.0332496
0.0329033
0.0325603
0.0322204
0.0318894
0.0315777
0.0313013
0.051591
0.0511224
0.0505926
0.0500216
0.0494252
0.0488074
0.0481881
0.0475627
0.0469321
0.0463135
0.0456967
0.0450805
0.0444872
0.0439053
0.043327
0.0427671
0.0422297
0.0417009
0.0411726
0.040662
0.0401778
0.0397127
0.0392565
0.0388106
0.0383882
0.0379816
0.0375835
0.0371885
0.0367981
0.0364217
0.0360531
0.0356874
0.0353212
0.0349571
0.0345962
0.0342397
0.0338884
0.0335493
0.0332353
0.032966
0.0534712
0.0530061
0.0524829
0.0519168
0.0513268
0.0507164
0.0501041
0.0494849
0.04886
0.048246
0.047633
0.0470199
0.0464278
0.0458459
0.0452653
0.0447011
0.0441572
0.0436205
0.0430841
0.042564
0.0420691
0.0415924
0.0411238
0.0406649
0.0402289
0.0398082
0.0393957
0.0389859
0.0385805
0.0381891
0.0378053
0.0374244
0.0370431
0.0366644
0.0362895
0.0359203
0.0355587
0.0352133
0.0348999
0.034643
0.055345
0.0548832
0.0543647
0.0538046
0.0532213
0.0526184
0.0520143
0.0514
0.0507807
0.0501716
0.0495623
0.0489524
0.0483615
0.047781
0.0471978
0.0466289
0.0460784
0.0455327
0.0449892
0.0444604
0.0439552
0.0434675
0.0429871
0.0425157
0.0420666
0.0416321
0.0412054
0.0407814
0.0403616
0.0399555
0.0395566
0.0391608
0.0387648
0.0383716
0.0379832
0.0376021
0.0372312
0.0368816
0.0365722
0.0363332
0.057213
0.0567557
0.0562406
0.0556863
0.0551098
0.0545143
0.0539165
0.0533084
0.0526951
0.0520922
0.0514857
0.0508799
0.0502889
0.0497082
0.0491251
0.0485517
0.0479948
0.0474411
0.0468895
0.0463518
0.0458367
0.0453383
0.0448465
0.0443633
0.0439014
0.0434534
0.0430127
0.0425751
0.0421413
0.0417208
0.0413073
0.0408967
0.0404862
0.0400789
0.0396774
0.039285
0.0389062
0.0385543
0.0382525
0.0380378
0.0590751
0.0586209
0.0581107
0.0575626
0.0569932
0.0564061
0.0558134
0.0552112
0.0546039
0.0540055
0.0534026
0.0527999
0.0522103
0.051629
0.0510447
0.0504694
0.049907
0.0493446
0.0487848
0.0482385
0.0477137
0.0472051
0.0467025
0.0462078
0.0457337
0.0452723
0.0448169
0.0443673
0.0439203
0.0434855
0.0430575
0.0426324
0.0422076
0.0417865
0.0413724
0.0409694
0.0405839
0.0402319
0.0399415
0.039758
0.0609319
0.0604807
0.0599757
0.0594342
0.0588718
0.0582914
0.0577049
0.0571092
0.0565091
0.055914
0.0553147
0.0547147
0.0541278
0.053545
0.0529585
0.052379
0.0518106
0.0512417
0.0506747
0.0501204
0.0495867
0.0490683
0.0485554
0.0480497
0.0475638
0.0470898
0.0466213
0.0461588
0.0456984
0.0452498
0.0448075
0.0443681
0.0439292
0.0434947
0.0430683
0.0426555
0.0422646
0.0419148
0.0416399
0.041495
0.0627836
0.0623355
0.0618361
0.0613017
0.0607471
0.060172
0.0595917
0.0590025
0.0584081
0.0578176
0.0572235
0.0566247
0.0560388
0.0554569
0.0548684
0.0542831
0.0537068
0.0531326
0.0525595
0.0519979
0.0514557
0.0509281
0.0504055
0.0498894
0.0493922
0.0489062
0.0484251
0.0479499
0.0474764
0.0470141
0.0465578
0.0461042
0.0456512
0.0452037
0.0447656
0.0443438
0.0439487
0.0436034
0.0433483
0.0432497
0.0646298
0.0641851
0.0636915
0.063165
0.0626161
0.0620475
0.061474
0.0608925
0.0603027
0.0597167
0.0591262
0.0585301
0.0579447
0.0573615
0.0567705
0.0561819
0.055599
0.0550188
0.0544396
0.0538712
0.0533211
0.0527849
0.052253
0.0517271
0.0512192
0.0507216
0.0502285
0.0497409
0.0492547
0.0487789
0.0483086
0.0478407
0.0473739
0.0469139
0.0464648
0.0460348
0.0456367
0.0452982
0.0450671
0.0450228
0.06647
0.0660289
0.0655411
0.0650211
0.064479
0.0639177
0.0633511
0.0627762
0.0621926
0.0616125
0.0610248
0.0604322
0.0598471
0.0592609
0.0586662
0.0580718
0.0574848
0.0568997
0.0563151
0.0557404
0.0551831
0.0546388
0.0540983
0.053563
0.0530449
0.0525364
0.0520317
0.0515321
0.0510334
0.0505445
0.0500604
0.0495777
0.0490983
0.0486263
0.0481665
0.0477288
0.0473289
0.0469993
0.0467966
0.0468144
0.0683032
0.0678661
0.0673854
0.0668709
0.0663358
0.0657825
0.0652241
0.0646543
0.0640777
0.0635012
0.0629182
0.0623269
0.0617419
0.0611552
0.0605568
0.0599568
0.0593651
0.0587754
0.0581859
0.0576056
0.0570416
0.05649
0.0559413
0.0553974
0.0548696
0.0543506
0.0538349
0.0533238
0.052813
0.0523114
0.051814
0.0513178
0.0508255
0.0503414
0.0498712
0.0494263
0.0490256
0.048707
0.0485366
0.0486244
0.0701283
0.0696949
0.0692203
0.068713
0.068186
0.0676416
0.0670891
0.0665257
0.0659547
0.0653828
0.0648033
0.0642149
0.0636297
0.0630404
0.0624365
0.061834
0.061239
0.0606456
0.0600519
0.0594667
0.0588967
0.0583383
0.0577822
0.0572302
0.0566933
0.0561644
0.0556381
0.0551159
0.0545935
0.0540796
0.0535695
0.0530604
0.0525554
0.0520595
0.0515791
0.0511275
0.0507269
0.0504211
0.0502868
0.0504517
0.0719444
0.0715147
0.071046
0.0705467
0.0700286
0.0694911
0.0689461
0.0683906
0.0678246
0.0672582
0.0666813
0.0660929
0.0655062
0.064913
0.0643079
0.0637036
0.0631061
0.0625097
0.0619127
0.0613233
0.0607481
0.0601836
0.0596208
0.0590613
0.0585159
0.0579776
0.0574413
0.0569085
0.0563749
0.0558492
0.0553269
0.0548054
0.0542881
0.0537806
0.0532904
0.0528325
0.0524327
0.0521412
0.0520461
0.0522949
0.0737504
0.0733243
0.0728615
0.0723709
0.0718599
0.0713306
0.0707945
0.0702453
0.0696862
0.0691236
0.0685479
0.0679614
0.0673734
0.0667771
0.0661707
0.0655652
0.064966
0.0643675
0.0637679
0.0631751
0.0625955
0.0620256
0.0614567
0.0608904
0.0603371
0.0597901
0.0592444
0.0587013
0.0581569
0.0576199
0.057086
0.0565526
0.0560235
0.0555048
0.055005
0.0545412
0.0541427
0.0538666
0.0538135
0.0541516
0.0755449
0.0751222
0.0746648
0.0741816
0.073679
0.0731593
0.0726303
0.0720892
0.0715354
0.0709752
0.0704026
0.0698165
0.0692255
0.0686298
0.0680237
0.0674181
0.0668181
0.0662182
0.0656169
0.0650216
0.0644383
0.0638638
0.0632896
0.0627172
0.0621566
0.0616015
0.0610468
0.0604941
0.0599389
0.0593916
0.0588467
0.058302
0.0577615
0.057232
0.0567229
0.0562532
0.0558564
0.0555966
0.0555874
0.0560193
0.0773268
0.0769075
0.0764551
0.0759786
0.0754853
0.0749734
0.0744534
0.0739188
0.073369
0.0728127
0.0722419
0.0716546
0.0710654
0.0704711
0.0698663
0.0692615
0.0686616
0.0680613
0.0674591
0.0668621
0.0662762
0.0656978
0.0651189
0.0645409
0.0639738
0.0634111
0.0628483
0.0622866
0.0617217
0.0611643
0.0606088
0.0600533
0.059502
0.058962
0.0584437
0.0579683
0.0575732
0.05733
0.0573658
0.0578947
0.0790948
0.0786788
0.0782311
0.0777607
0.0772747
0.0767722
0.0762599
0.0757311
0.0751875
0.0746327
0.0740628
0.0734789
0.0728924
0.0723005
0.071698
0.0710949
0.0704958
0.0698958
0.0692936
0.068696
0.0681086
0.0675269
0.0669438
0.0663609
0.0657878
0.0652184
0.064648
0.0640781
0.0635043
0.0629373
0.0623717
0.061806
0.0612447
0.0606944
0.060167
0.0596859
0.0592923
0.0590655
0.0591467
0.0597742
0.0808477
0.0804351
0.0799919
0.079527
0.0790473
0.0785519
0.0780469
0.0775263
0.0769888
0.0764365
0.0758695
0.0752893
0.0747062
0.0741174
0.0735179
0.0729172
0.0723198
0.071721
0.0711195
0.0705222
0.0699353
0.06935
0.0687631
0.068176
0.0675978
0.0670223
0.0664451
0.0658676
0.0652856
0.0647097
0.0641347
0.0635595
0.0629897
0.0624287
0.061892
0.0614049
0.0610126
0.0608017
0.0609278
0.0616542
0.0825841
0.0821751
0.0817366
0.081277
0.0808031
0.0803139
0.0798153
0.0793013
0.07877
0.0782228
0.0776604
0.0770849
0.076506
0.075921
0.0753253
0.0747277
0.0741327
0.0735357
0.0729355
0.0723389
0.0717519
0.071165
0.0705756
0.0699853
0.0694028
0.0688219
0.0682385
0.0676541
0.0670646
0.0664805
0.0658967
0.0653124
0.0647334
0.0641629
0.0636175
0.0631245
0.062733
0.0625371
0.0627067
0.0635308
0.0843027
0.0838975
0.0834639
0.0830098
0.0825416
0.0820585
0.0815659
0.0810581
0.080533
0.0799917
0.0794349
0.0788649
0.0782909
0.0777105
0.0771191
0.0765253
0.0759333
0.0753389
0.0747408
0.0741455
0.0735587
0.072971
0.0723802
0.0717877
0.0712016
0.070616
0.0700272
0.0694365
0.0688401
0.0682484
0.0676566
0.0670638
0.0664759
0.0658963
0.0653427
0.0648438
0.0644524
0.0642701
0.0644812
0.0654002
0.0860023
0.0856012
0.0851726
0.0847242
0.0842619
0.0837849
0.0832983
0.0827968
0.0822781
0.081743
0.0811924
0.0806284
0.08006
0.0794847
0.0788983
0.078309
0.0777207
0.0771295
0.0765343
0.0759411
0.0753551
0.0747673
0.0741758
0.0735822
0.0729931
0.0724034
0.0718097
0.0712131
0.0706108
0.0700124
0.0694133
0.0688126
0.0682164
0.0676284
0.0670667
0.0665617
0.0661696
0.0659993
0.0662489
0.0672591
0.0876815
0.0872849
0.0868616
0.0864191
0.0859628
0.0854922
0.0850118
0.0845167
0.0840046
0.0834761
0.0829322
0.0823747
0.0818123
0.0812426
0.0806618
0.0800775
0.0794935
0.0789062
0.0783147
0.0777248
0.0771399
0.0765525
0.0759612
0.0753685
0.074776
0.0741827
0.073585
0.0729822
0.0723752
0.0717713
0.0711657
0.070558
0.0699542
0.0693581
0.0687886
0.0682773
0.0678837
0.0677232
0.0680079
0.0691043
0.0893392
0.0889473
0.0885297
0.0880933
0.0876434
0.0871793
0.0867055
0.086217
0.0857117
0.0851901
0.0846531
0.0841026
0.0835467
0.0829832
0.0824084
0.0818296
0.0812506
0.0806679
0.0800809
0.0794961
0.0789119
0.0783251
0.0777342
0.0771416
0.0765477
0.0759521
0.0753523
0.0747443
0.0741328
0.0735239
0.0729127
0.0722989
0.0716881
0.0710846
0.0705074
0.0699895
0.0695933
0.0694404
0.0697562
0.0709327
0.0909743
0.0905874
0.0901757
0.0897457
0.0893024
0.0888451
0.0883781
0.0878965
0.0873984
0.086884
0.0863544
0.0858112
0.0852621
0.0847052
0.0841369
0.0835643
0.0829908
0.0824132
0.081831
0.0812503
0.0806687
0.0800836
0.0794938
0.0789016
0.078307
0.0777095
0.077106
0.0764962
0.0758817
0.0752688
0.0746531
0.0740344
0.0734172
0.0728065
0.0722218
0.0716972
0.0712972
0.0711495
0.0714921
0.0727421
0.0925858
0.0922042
0.0917986
0.0913752
0.0909388
0.0904886
0.0900286
0.0895543
0.0890636
0.0885568
0.0880348
0.0874992
0.0869575
0.0864075
0.0858463
0.0852802
0.0847128
0.084141
0.0835642
0.0829878
0.0824093
0.0818267
0.0812388
0.0806476
0.080053
0.0794545
0.0788492
0.0782376
0.0776207
0.0770048
0.0763856
0.0757639
0.0751402
0.0745226
0.0739306
0.0733989
0.0729943
0.0728494
0.073214
0.0745304
0.0941727
0.0937966
0.0933974
0.0929809
0.0925516
0.0921088
0.0916561
0.0911893
0.0907064
0.0902074
0.0896933
0.0891658
0.0886316
0.0880891
0.0875353
0.0869764
0.0864157
0.0858504
0.0852798
0.0847078
0.0841328
0.0835532
0.0829683
0.0823784
0.0817843
0.0811855
0.0805795
0.0799668
0.0793485
0.0787304
0.0781082
0.077483
0.0768544
0.076231
0.0756323
0.0750936
0.0746834
0.0745387
0.0749207
0.0762959
0.0957341
0.0953639
0.0949712
0.0945619
0.0941399
0.0937046
0.0932595
0.0928005
0.0923257
0.0918348
0.091329
0.0908098
0.0902836
0.0897489
0.0892029
0.0886516
0.0880981
0.0875401
0.0869775
0.0864092
0.0858378
0.0852619
0.0846817
0.0840927
0.0834993
0.082901
0.0822952
0.0816825
0.0810638
0.0804442
0.0798198
0.0791914
0.0785588
0.0779304
0.0773256
0.07678
0.0763632
0.0762165
0.0766111
0.0780372
0.0972694
0.0969052
0.0965193
0.0961173
0.0957028
0.0952753
0.0948381
0.0943871
0.0939207
0.0934383
0.092941
0.0924303
0.0919124
0.0913858
0.090848
0.0903048
0.0897592
0.089209
0.0886529
0.0880896
0.0875225
0.0869506
0.0863741
0.0857879
0.0851964
0.0845993
0.0839948
0.0833833
0.0827655
0.0821452
0.0815189
0.0808881
0.0802523
0.0796197
0.0790094
0.0784569
0.0780329
0.0778818
0.0782843
0.0797536
0.0987778
0.0984198
0.0980409
0.0976463
0.0972396
0.0968201
0.0963909
0.0959483
0.0954905
0.0950169
0.0945284
0.0940265
0.0935171
0.092999
0.0924698
0.091935
0.0913977
0.090857
0.0903062
0.0897482
0.089186
0.0886183
0.0880457
0.0874629
0.0868743
0.0862788
0.085677
0.0850679
0.0844533
0.083832
0.083204
0.0825718
0.0819337
0.0812977
0.0806824
0.0801233
0.0796914
0.0795338
0.0799397
0.0814444
0.100259
0.0999071
0.0995355
0.0991485
0.0987496
0.0983383
0.0979174
0.0974833
0.0970345
0.0965701
0.0960905
0.0955975
0.0950969
0.0945875
0.0940672
0.0935413
0.0930125
0.0924797
0.0919358
0.0913839
0.0908272
0.0902643
0.0896955
0.0891171
0.0885323
0.0879401
0.0873411
0.0867352
0.0861227
0.0855023
0.0848743
0.0842415
0.083602
0.0829633
0.0823437
0.0817781
0.0813378
0.0811717
0.0815765
0.083109
0.101712
0.101367
0.101002
0.100623
0.100232
0.0998292
0.0994167
0.0989914
0.098552
0.0980974
0.0976266
0.0971426
0.0966509
0.0961506
0.0956396
0.095123
0.0946034
0.0940781
0.0935412
0.092996
0.0924453
0.0918876
0.0913222
0.0907496
0.0901697
0.0895818
0.0889873
0.088385
0.0877747
0.0871557
0.0865287
0.085896
0.0852559
0.0846154
0.0839921
0.0834204
0.0829713
0.0827948
0.0831945
0.0847473
0.103136
0.102798
0.102441
0.10207
0.101687
0.101292
0.100888
0.100472
0.100042
0.0995988
0.099136
0.0986608
0.0981784
0.0976874
0.0971861
0.0966794
0.0961704
0.0956516
0.0951217
0.0945837
0.0940399
0.0934883
0.092928
0.0923606
0.0917854
0.0912028
0.0906149
0.0900164
0.089408
0.0887909
0.0881657
0.0875342
0.0868944
0.0862528
0.0856265
0.085049
0.0845908
0.0844025
0.0847931
0.0863593
0.104532
0.104201
0.103851
0.103488
0.103113
0.102727
0.102332
0.101924
0.101504
0.10107
0.100617
0.100151
0.0996786
0.0991974
0.0987063
0.0982098
0.0977095
0.0971985
0.0966764
0.0961463
0.0956105
0.0950653
0.0945108
0.0939488
0.093378
0.0928014
0.0922192
0.0916255
0.0910201
0.0904062
0.0897844
0.0891551
0.0885164
0.0878746
0.0872459
0.0866631
0.0861956
0.0859942
0.0863721
0.0879448
0.105898
0.105574
0.105233
0.104877
0.104511
0.104133
0.103747
0.103348
0.102937
0.102513
0.102069
0.101614
0.101151
0.10068
0.100199
0.0997144
0.0992215
0.0987183
0.0982045
0.097683
0.097157
0.0966178
0.0960693
0.0955132
0.0949482
0.0943775
0.093801
0.0932125
0.0926118
0.0920023
0.0913846
0.0907581
0.0901211
0.0894795
0.0888491
0.0882615
0.0877848
0.087569
0.0879311
0.0895039
0.107236
0.106919
0.106585
0.106238
0.10588
0.105511
0.105133
0.104743
0.104341
0.103927
0.103493
0.103048
0.102595
0.102135
0.101665
0.101189
0.100705
0.10021
0.0997052
0.0991927
0.0986754
0.0981438
0.0976023
0.0970526
0.0964943
0.0959302
0.09536
0.0947773
0.0941821
0.0935777
0.0929662
0.0923422
0.0917071
0.0910665
0.0904351
0.0898432
0.0893575
0.0891266
0.08947
0.0910369
0.108543
0.108234
0.107907
0.107569
0.107219
0.106859
0.10649
0.106109
0.105717
0.105312
0.104888
0.104453
0.104011
0.103562
0.103104
0.102636
0.10216
0.101674
0.101178
0.100676
0.100167
0.0996431
0.0991091
0.0985658
0.0980157
0.097459
0.0968955
0.0963192
0.0957299
0.0951312
0.0945248
0.0939049
0.0932729
0.0926342
0.0920027
0.0914073
0.0909128
0.0906662
0.0909884
0.0925439
0.109821
0.109519
0.109201
0.10887
0.108529
0.108178
0.107818
0.107446
0.107063
0.106668
0.106254
0.10583
0.105398
0.104961
0.104511
0.104052
0.103585
0.103109
0.102624
0.102132
0.101631
0.101115
0.10059
0.100054
0.0995126
0.0989637
0.0984072
0.0978374
0.0972545
0.0966618
0.0960609
0.0954457
0.0948177
0.0941818
0.0935509
0.0929527
0.09245
0.0921873
0.0924862
0.0940251
0.11107
0.110775
0.110465
0.110142
0.10981
0.109467
0.109116
0.108754
0.10838
0.107995
0.107592
0.107177
0.106755
0.106328
0.105888
0.105439
0.104981
0.104515
0.10404
0.103559
0.103066
0.10256
0.102043
0.101517
0.100985
0.100444
0.0998944
0.0993312
0.0987549
0.0981692
0.097574
0.096964
0.0963406
0.0957081
0.0950788
0.0944787
0.0939683
0.0936895
0.0939633
0.0954809
0.112288
0.112001
0.111699
0.111385
0.111061
0.110727
0.110385
0.110032
0.109668
0.109293
0.1089
0.108495
0.108083
0.107664
0.107235
0.106796
0.106348
0.105892
0.10543
0.104956
0.104473
0.103978
0.10347
0.102954
0.102432
0.1019
0.101356
0.100799
0.10023
0.0996531
0.0990634
0.0984589
0.0978406
0.0972125
0.0965856
0.0959845
0.0954672
0.0951723
0.0954195
0.0969117
0.113477
0.113197
0.112903
0.112598
0.112283
0.111958
0.111624
0.111281
0.110926
0.110561
0.11018
0.109785
0.109381
0.10897
0.108552
0.108123
0.107686
0.10724
0.106787
0.106324
0.10585
0.105365
0.104868
0.104363
0.103849
0.103325
0.102789
0.10224
0.101679
0.10111
0.100527
0.0999292
0.0993171
0.0986943
0.0980707
0.0974695
0.096946
0.0966353
0.0968549
0.0983179
0.114637
0.114364
0.114078
0.113781
0.113475
0.113158
0.112834
0.1125
0.112155
0.1118
0.111431
0.111045
0.110651
0.110249
0.109841
0.109422
0.108995
0.108559
0.108116
0.107662
0.107198
0.106723
0.106236
0.105742
0.105237
0.104722
0.104194
0.103653
0.1031
0.102539
0.101965
0.101375
0.10077
0.100153
0.0995335
0.0989331
0.0984045
0.0980784
0.0982694
0.0996994
0.115767
0.115502
0.115223
0.114935
0.114637
0.11433
0.114014
0.113689
0.113354
0.113009
0.112651
0.112275
0.111891
0.1115
0.111101
0.110693
0.110275
0.109848
0.109414
0.108971
0.108517
0.108053
0.107577
0.107092
0.106597
0.10609
0.105571
0.105039
0.104495
0.103943
0.103377
0.102795
0.102198
0.101588
0.100974
0.100375
0.0998421
0.0995012
0.0996629
0.101056
0.116867
0.11661
0.11634
0.116059
0.11577
0.115472
0.115165
0.11485
0.114524
0.114189
0.113841
0.113476
0.113102
0.112721
0.112332
0.111934
0.111526
0.111109
0.110683
0.110251
0.109808
0.109354
0.108889
0.108414
0.107928
0.107431
0.106921
0.106399
0.105864
0.105321
0.104764
0.104191
0.103602
0.103
0.102391
0.101795
0.101259
0.100903
0.101035
0.102389
0.117939
0.117689
0.117427
0.117155
0.116874
0.116585
0.116287
0.115981
0.115665
0.115339
0.115001
0.114647
0.114284
0.113913
0.113534
0.113146
0.112749
0.112342
0.111926
0.111503
0.11107
0.110627
0.110172
0.109707
0.109231
0.108744
0.108244
0.107731
0.107206
0.106673
0.106126
0.105562
0.104982
0.104387
0.103785
0.103193
0.102654
0.102285
0.102387
0.103698
0.118981
0.118739
0.118485
0.118222
0.117949
0.117669
0.11738
0.117083
0.116776
0.116461
0.116133
0.11579
0.115438
0.115076
0.114707
0.114329
0.113943
0.113546
0.11314
0.112726
0.112304
0.111871
0.111427
0.110971
0.110506
0.110029
0.109539
0.109037
0.108523
0.108
0.107462
0.106908
0.106337
0.105751
0.105156
0.104568
0.104027
0.103646
0.103718
0.104983
0.119996
0.119761
0.119515
0.11926
0.118996
0.118724
0.118444
0.118156
0.117859
0.117554
0.117237
0.116905
0.116563
0.116211
0.115851
0.115484
0.115108
0.114722
0.114326
0.113921
0.11351
0.113088
0.112654
0.112209
0.111753
0.111287
0.110808
0.110316
0.109813
0.109301
0.108773
0.108229
0.107668
0.107091
0.106504
0.10592
0.105379
0.104986
0.105028
0.106245
0.120982
0.120755
0.120516
0.120269
0.120014
0.119751
0.11948
0.119201
0.118914
0.118618
0.118311
0.117993
0.11766
0.117318
0.116967
0.116611
0.116246
0.11587
0.115484
0.11509
0.114689
0.114277
0.113854
0.113419
0.112974
0.112518
0.112049
0.111569
0.11108
0.110577
0.110059
0.109525
0.108973
0.108406
0.107827
0.107249
0.106708
0.106304
0.106317
0.107483
0.12194
0.12172
0.12149
0.121251
0.121005
0.12075
0.120488
0.120218
0.11994
0.119654
0.119357
0.11905
0.118728
0.118396
0.118056
0.11771
0.117355
0.11699
0.116615
0.116231
0.11584
0.115439
0.115027
0.114603
0.114168
0.113723
0.113265
0.112797
0.112319
0.111827
0.111319
0.110795
0.110254
0.109696
0.109126
0.108555
0.108015
0.107602
0.107585
0.108699
0.122871
0.122659
0.122436
0.122206
0.121967
0.121721
0.121468
0.121207
0.120938
0.120662
0.120375
0.120078
0.119767
0.119447
0.119117
0.118781
0.118436
0.118082
0.117718
0.117345
0.116963
0.116573
0.116172
0.115759
0.115336
0.114901
0.114455
0.113999
0.113532
0.113051
0.112554
0.11204
0.11151
0.110962
0.110401
0.109837
0.109299
0.108877
0.108832
0.109893
0.123775
0.12357
0.123355
0.123133
0.122903
0.122665
0.122421
0.122169
0.121909
0.121642
0.121366
0.12108
0.12078
0.12047
0.120151
0.119824
0.11949
0.119147
0.118794
0.118432
0.118061
0.117681
0.117291
0.116889
0.116476
0.116053
0.115619
0.115176
0.114719
0.114248
0.113763
0.11326
0.11274
0.112203
0.111652
0.111096
0.11056
0.110131
0.110058
0.111064
0.124652
0.124454
0.124248
0.124033
0.123812
0.123583
0.123347
0.123104
0.122853
0.122596
0.122329
0.122054
0.121767
0.121467
0.121157
0.12084
0.120518
0.120185
0.119843
0.119492
0.119131
0.118762
0.118382
0.117992
0.117591
0.117179
0.116756
0.116325
0.11588
0.11542
0.114946
0.114454
0.113946
0.11342
0.112879
0.11233
0.111799
0.111363
0.111262
0.112212
0.125503
0.125313
0.125114
0.124907
0.124694
0.124474
0.124247
0.124013
0.123771
0.123523
0.123266
0.123