/*--------------------------------*- C++ -*----------------------------------*\
| =========                 |                                                 |
| \\      /  F ield         | OpenFOAM: The Open Source CFD Toolbox           |
|  \\    /   O peration     | Version:  3.0.1                                 |
|   \\  /    A nd           | Web:      www.OpenFOAM.org                      |
|    \\/     M anipulation  |                                                 |
\*---------------------------------------------------------------------------*/
FoamFile
{
    version     2.0;
    format      ascii;
    class       volScalarField;
    location    "250";
    object      p;
}
// * * * * * * * * * * * * * * * * * * * * * * * * * * * * * * * * * * * * * //

dimensions      [0 2 -2 0 0 0 0];

internalField   nonuniform List<scalar> 
58000
(
0.0379467
-0.235831
-0.454435
-0.587289
-0.665785
-0.721543
-0.759699
-0.784743
-0.800238
-0.805966
-0.80577
-0.801562
-0.793032
-0.782494
-0.772131
-0.762203
-0.752221
-0.743008
-0.734645
-0.726599
-0.718314
-0.710529
-0.703319
-0.696264
-0.688861
-0.681248
-0.674114
-0.667245
-0.660301
-0.653061
-0.645721
-0.638794
-0.632109
-0.625408
-0.6185
-0.610389
-0.599095
-0.587279
-0.578067
-0.571095
0.263395
0.14686
0.0163119
-0.117452
-0.2372
-0.340282
-0.426075
-0.502165
-0.56388
-0.6113
-0.648089
-0.673889
-0.689969
-0.699789
-0.704071
-0.703801
-0.701077
-0.696958
-0.691817
-0.685991
-0.679884
-0.673735
-0.66739
-0.660892
-0.654211
-0.647756
-0.641255
-0.634645
-0.627909
-0.621064
-0.614479
-0.607897
-0.601229
-0.594397
-0.587404
-0.580248
-0.572278
-0.56422
-0.557975
-0.554621
0.189782
0.105094
0.0159161
-0.0791792
-0.170702
-0.256854
-0.334816
-0.403395
-0.464501
-0.514436
-0.555331
-0.588258
-0.612226
-0.629021
-0.640768
-0.647841
-0.651156
-0.652004
-0.651182
-0.649094
-0.646033
-0.642261
-0.637979
-0.633342
-0.62846
-0.623337
-0.617934
-0.612347
-0.606609
-0.600831
-0.594973
-0.58895
-0.582809
-0.576537
-0.570185
-0.563734
-0.557006
-0.550195
-0.543865
-0.537984
0.189364
0.134356
0.0730325
0.0028704
-0.0710326
-0.146001
-0.21787
-0.285021
-0.347247
-0.401132
-0.448236
-0.488699
-0.520785
-0.545899
-0.565937
-0.580587
-0.590421
-0.596942
-0.601012
-0.602942
-0.603126
-0.602078
-0.600121
-0.597415
-0.594095
-0.590322
-0.586139
-0.58161
-0.576759
-0.571706
-0.566536
-0.561157
-0.555585
-0.549815
-0.543918
-0.537999
-0.532016
-0.525988
-0.520103
-0.514432
0.161739
0.121657
0.0784657
0.0280405
-0.0274843
-0.0870716
-0.14796
-0.20734
-0.265304
-0.317785
-0.365442
-0.408351
-0.444256
-0.473753
-0.498718
-0.518537
-0.533233
-0.544281
-0.552564
-0.558256
-0.561637
-0.563326
-0.5638
-0.563242
-0.561792
-0.559563
-0.556754
-0.55346
-0.549722
-0.54568
-0.541355
-0.536742
-0.531879
-0.526778
-0.521535
-0.516222
-0.510829
-0.505335
-0.499776
-0.494147
0.144579
0.113285
0.0802068
0.0417613
-0.00105953
-0.0481922
-0.0984026
-0.149063
-0.200597
-0.249176
-0.29489
-0.337624
-0.374941
-0.406876
-0.435026
-0.458502
-0.476952
-0.491724
-0.503609
-0.512631
-0.518958
-0.523271
-0.526118
-0.52767
-0.528034
-0.527356
-0.525943
-0.523906
-0.521287
-0.518214
-0.514733
-0.510897
-0.506747
-0.5023
-0.497647
-0.492872
-0.487985
-0.482953
-0.477767
-0.47245
0.12824
0.102898
0.0766146
0.0462705
0.0124455
-0.0251731
-0.0663396
-0.108769
-0.153358
-0.196782
-0.238825
-0.279404
-0.316146
-0.348608
-0.378139
-0.403719
-0.424659
-0.44212
-0.456786
-0.468544
-0.477419
-0.484073
-0.489094
-0.492634
-0.494767
-0.495625
-0.495607
-0.494835
-0.493356
-0.491296
-0.488698
-0.485671
-0.482263
-0.478496
-0.474465
-0.470243
-0.465857
-0.461275
-0.456469
-0.45147
0.114702
0.0934052
0.0716657
0.0468234
0.0192963
-0.0113389
-0.0453623
-0.0808509
-0.119019
-0.157127
-0.194855
-0.232228
-0.267112
-0.298757
-0.328291
-0.354675
-0.376976
-0.396153
-0.412765
-0.426584
-0.437494
-0.446101
-0.453
-0.458303
-0.462046
-0.464333
-0.465631
-0.466066
-0.465687
-0.464607
-0.462874
-0.460641
-0.457962
-0.454863
-0.451435
-0.447749
-0.443849
-0.439705
-0.435289
-0.430648
0.103105
0.0847823
0.066303
0.0453781
0.0223702
-0.00313639
-0.0316618
-0.0615706
-0.0942266
-0.12743
-0.160853
-0.194645
-0.226987
-0.256968
-0.285549
-0.311754
-0.334493
-0.354529
-0.372308
-0.387523
-0.399937
-0.410072
-0.418495
-0.425275
-0.430417
-0.43398
-0.436473
-0.438019
-0.438664
-0.438513
-0.437606
-0.436137
-0.434161
-0.431708
-0.428865
-0.4257
-0.422271
-0.418556
-0.414526
-0.410247
0.0931825
0.0771166
0.0610658
0.0430385
0.0233693
0.0016863
-0.0226125
-0.0481152
-0.0762191
-0.105152
-0.134621
-0.164882
-0.194438
-0.222324
-0.249372
-0.274715
-0.297197
-0.317411
-0.335704
-0.351725
-0.36514
-0.376373
-0.385953
-0.393903
-0.400199
-0.404847
-0.408379
-0.410908
-0.412473
-0.413168
-0.413024
-0.412266
-0.410949
-0.409104
-0.406814
-0.404144
-0.401164
-0.39786
-0.394203
-0.39028
0.0846274
0.0703346
0.0561604
0.0403517
0.0232241
0.00445626
-0.0165609
-0.0385875
-0.0629815
-0.0883032
-0.114303
-0.141307
-0.168101
-0.193745
-0.218969
-0.243035
-0.264787
-0.284681
-0.302981
-0.319318
-0.333293
-0.345235
-0.355624
-0.364439
-0.371637
-0.377167
-0.381566
-0.384932
-0.387294
-0.388737
-0.389279
-0.389166
-0.38845
-0.387163
-0.385385
-0.383176
-0.380616
-0.377697
-0.374393
-0.370811
0.0772045
0.0643429
0.0516613
0.0376026
0.0224658
0.00597458
-0.0124535
-0.0317167
-0.0530956
-0.0753997
-0.0984226
-0.122526
-0.146737
-0.170173
-0.193485
-0.21606
-0.236788
-0.25602
-0.273956
-0.29023
-0.304403
-0.316721
-0.327611
-0.337014
-0.344873
-0.351083
-0.356172
-0.360223
-0.363253
-0.365338
-0.366479
-0.366933
-0.366753
-0.365967
-0.364651
-0.362862
-0.360687
-0.358124
-0.355148
-0.351885
0.0707232
0.0590433
0.0475795
0.0349363
0.0213975
0.00672517
-0.00962425
-0.0266636
-0.0455794
-0.0653688
-0.0858602
-0.107431
-0.129304
-0.150665
-0.172098
-0.193107
-0.212653
-0.23101
-0.248332
-0.264266
-0.278357
-0.290776
-0.301907
-0.311658
-0.319961
-0.326664
-0.332276
-0.336863
-0.340432
-0.343049
-0.344696
-0.345639
-0.345923
-0.345576
-0.344671
-0.343257
-0.341429
-0.339187
-0.336508
-0.333538
0.0650295
0.0543444
0.0438951
0.0324224
0.0201944
0.00700475
-0.00764613
-0.0228683
-0.0397523
-0.0574394
-0.0757844
-0.095165
-0.114953
-0.134414
-0.154072
-0.173533
-0.191839
-0.209206
-0.225755
-0.241159
-0.254961
-0.267274
-0.278435
-0.288331
-0.296889
-0.303919
-0.309902
-0.314888
-0.318873
-0.321914
-0.323977
-0.325326
-0.326004
-0.326034
-0.325485
-0.3244
-0.322877
-0.320919
-0.318506
-0.315801
0.0599995
0.050166
0.040577
0.0300898
0.0189571
0.00699934
-0.00624067
-0.0199559
-0.0351446
-0.051062
-0.0675833
-0.0850737
-0.103023
-0.120768
-0.138789
-0.156771
-0.173842
-0.190175
-0.205866
-0.220617
-0.233984
-0.246034
-0.257064
-0.266944
-0.275598
-0.282811
-0.289031
-0.294294
-0.298583
-0.301949
-0.304341
-0.306018
-0.30702
-0.307366
-0.307118
-0.306316
-0.305055
-0.303345
-0.301165
-0.298694
0.0555318
0.0464378
0.0375894
0.0279453
0.0177427
0.00682459
-0.00522568
-0.0176739
-0.0314322
-0.0458469
-0.0608102
-0.0766687
-0.0930006
-0.109214
-0.125744
-0.142342
-0.158218
-0.173518
-0.188316
-0.202345
-0.215182
-0.226859
-0.237637
-0.247374
-0.256
-0.263276
-0.269619
-0.275051
-0.279545
-0.283145
-0.285785
-0.287719
-0.288979
-0.289581
-0.289583
-0.289016
-0.287978
-0.286479
-0.284499
-0.282233
0.0515435
0.0430984
0.034896
0.0259831
0.0165816
0.00655385
-0.00447977
-0.0158491
-0.0283871
-0.0415146
-0.0551372
-0.06958
-0.0844916
-0.0993415
-0.114524
-0.129844
-0.14459
-0.158883
-0.172788
-0.186064
-0.198314
-0.209545
-0.219984
-0.229487
-0.237987
-0.245229
-0.2516
-0.257108
-0.26172
-0.265474
-0.268292
-0.270416
-0.271873
-0.272676
-0.272878
-0.272504
-0.27165
-0.270326
-0.268516
-0.266425
0.0479656
0.0400961
0.0324632
0.0241919
0.015489
0.006233
-0.00392112
-0.0143609
-0.0258467
-0.0378616
-0.050322
-0.0635304
-0.0771915
-0.090828
-0.104799
-0.118948
-0.132637
-0.145971
-0.159005
-0.171524
-0.183159
-0.193898
-0.20394
-0.213142
-0.221439
-0.228571
-0.234891
-0.240401
-0.245059
-0.248896
-0.251828
-0.254084
-0.255685
-0.256639
-0.256996
-0.256775
-0.256069
-0.254888
-0.253218
-0.251274
0.0447419
0.0373872
0.030261
0.0225582
0.0144706
0.0058912
-0.00349404
-0.0131245
-0.0236941
-0.0347392
-0.0461848
-0.0583107
-0.0708663
-0.0834215
-0.0963017
-0.109385
-0.122095
-0.134525
-0.146723
-0.1585
-0.169511
-0.179733
-0.189343
-0.198197
-0.206237
-0.213199
-0.219408
-0.224858
-0.229501
-0.233365
-0.236356
-0.238692
-0.240389
-0.24145
-0.241921
-0.241817
-0.241226
-0.240159
-0.238602
-0.23678
0.0418255
0.0349347
0.0282627
0.0210678
0.0135274
0.00554683
-0.00315982
-0.0120789
-0.0218438
-0.0320367
-0.0425897
-0.0537608
-0.0653349
-0.0769237
-0.088823
-0.100936
-0.112745
-0.124331
-0.135736
-0.146795
-0.157189
-0.166886
-0.176043
-0.184519
-0.192263
-0.199012
-0.205064
-0.210404
-0.214984
-0.218825
-0.22183
-0.224203
-0.225953
-0.227083
-0.227633
-0.227614
-0.227109
-0.226129
-0.224661
-0.222938
0.0391769
0.0327072
0.0264453
0.0197073
0.0126573
0.00521127
-0.00289154
-0.0111804
-0.0202327
-0.029671
-0.0394337
-0.0497576
-0.0604565
-0.0711796
-0.0821945
-0.0934247
-0.104405
-0.115208
-0.125868
-0.136239
-0.146032
-0.155207
-0.163903
-0.171985
-0.179406
-0.185912
-0.19177
-0.196965
-0.201442
-0.205221
-0.208202
-0.210574
-0.212343
-0.213509
-0.214107
-0.214145
-0.213701
-0.212785
-0.211386
-0.209741
0.0367628
0.0306776
0.0247884
0.0184644
0.0118567
0.00489073
-0.00267068
-0.0103967
-0.0188137
-0.0275794
-0.0366378
-0.0462056
-0.0561206
-0.0660652
-0.076282
-0.0867094
-0.0969289
-0.107005
-0.116967
-0.126687
-0.1359
-0.144563
-0.1528
-0.160481
-0.167565
-0.173805
-0.179445
-0.184465
-0.18881
-0.192496
-0.195423
-0.197764
-0.199523
-0.200697
-0.201318
-0.201389
-0.200984
-0.200113
-0.198764
-0.19718
0.0345552
0.0288227
0.023274
0.0173272
0.0111207
0.00458889
-0.00248405
-0.00970424
-0.017551
-0.0257133
-0.0341403
-0.0430295
-0.052239
-0.0614808
-0.0709749
-0.0806714
-0.0901922
-0.0995945
-0.108906
-0.118013
-0.126671
-0.134838
-0.142624
-0.149905
-0.156644
-0.162605
-0.168011
-0.172836
-0.177027
-0.180596
-0.183444
-0.185729
-0.187455
-0.188614
-0.189236
-0.189321
-0.188936
-0.188093
-0.186781
-0.185243
0.0325304
0.0271227
0.0218867
0.0162852
0.010445
0.00430785
-0.00232193
-0.00908449
-0.0164161
-0.0240343
-0.031892
-0.0401693
-0.0487411
-0.0573461
-0.0661838
-0.0752133
-0.0840924
-0.0928724
-0.101578
-0.110107
-0.11824
-0.12593
-0.133277
-0.140164
-0.146559
-0.152235
-0.157395
-0.162012
-0.166032
-0.169467
-0.172216
-0.174428
-0.176101
-0.177227
-0.177833
-0.177915
-0.177537
-0.176709
-0.175421
-0.173918
0.0306682
0.025561
0.0206131
0.0153292
0.00982504
0.00404877
-0.00217702
-0.00852348
-0.0153872
-0.022512
-0.0298542
-0.0375773
-0.0455705
-0.0535968
-0.0618366
-0.0702561
-0.0785454
-0.0867502
-0.0948922
-0.102881
-0.110516
-0.11775
-0.124675
-0.131178
-0.137231
-0.142621
-0.14753
-0.15193
-0.155769
-0.159057
-0.161695
-0.163818
-0.165424
-0.166503
-0.167078
-0.167146
-0.166764
-0.165941
-0.164669
-0.163193
0.0289513
0.0241229
0.0194417
0.0144512
0.0092564
0.00381151
-0.0020442
-0.00801061
-0.0144477
-0.0211231
-0.0279962
-0.0352154
-0.0426816
-0.0501801
-0.0578737
-0.065734
-0.0734804
-0.0811533
-0.0887715
-0.0962546
-0.10342
-0.110222
-0.116741
-0.122872
-0.128592
-0.133698
-0.138354
-0.142534
-0.146186
-0.149318
-0.151834
-0.153859
-0.155388
-0.156409
-0.156945
-0.156988
-0.156594
-0.15577
-0.154508
-0.153052
0.0273649
0.0227958
0.0183624
0.0136437
0.00873481
0.00359539
-0.00191992
-0.00753762
-0.0135841
-0.0198484
-0.0262932
-0.0330523
-0.0400371
-0.0470523
-0.0542452
-0.0615917
-0.0688376
-0.0760184
-0.0831502
-0.0901608
-0.0968839
-0.103276
-0.109408
-0.115183
-0.120578
-0.125405
-0.129812
-0.133771
-0.137233
-0.140205
-0.142594
-0.144513
-0.145957
-0.146914
-0.147402
-0.147416
-0.147004
-0.146174
-0.14492
-0.143481
0.0258958
0.0215688
0.0173663
0.0129003
0.00825651
0.00339962
-0.0018014
-0.00709784
-0.0127854
-0.0186723
-0.0247241
-0.0310616
-0.037605
-0.0441769
-0.0509097
-0.0577832
-0.0645668
-0.0712919
-0.0779717
-0.0845411
-0.0908491
-0.0968539
-0.102618
-0.108052
-0.113135
-0.11769
-0.121852
-0.125592
-0.128865
-0.131674
-0.133933
-0.135743
-0.137098
-0.137986
-0.138423
-0.138403
-0.13797
-0.137133
-0.135885
-0.134464
0.0245328
0.0204324
0.0164457
0.012215
0.00781794
0.00322346
-0.00168646
-0.00668598
-0.0120425
-0.0175817
-0.0232718
-0.0292215
-0.035359
-0.0415231
-0.0478325
-0.0542695
-0.0606254
-0.0669276
-0.0731871
-0.0793449
-0.0852635
-0.090903
-0.0963189
-0.101427
-0.106211
-0.110503
-0.114427
-0.117954
-0.121039
-0.123687
-0.125814
-0.127514
-0.128778
-0.129595
-0.129979
-0.129924
-0.12947
-0.128626
-0.127386
-0.125983
0.0232661
0.0193781
0.0155934
0.0115827
0.00741583
0.00306577
-0.00157369
-0.0062978
-0.011348
-0.0165656
-0.0219219
-0.0275141
-0.0332771
-0.0390648
-0.0449837
-0.0510175
-0.0569768
-0.0628862
-0.0687546
-0.0745285
-0.0800822
-0.0853778
-0.0904644
-0.0952645
-0.0997612
-0.103802
-0.107496
-0.110815
-0.113717
-0.116207
-0.118204
-0.119793
-0.120966
-0.121712
-0.122044
-0.121954
-0.121481
-0.120631
-0.119402
-0.118021
0.022087
0.0183983
0.0148033
0.0109987
0.00704731
0.00292559
-0.00146206
-0.00593001
-0.0106958
-0.0156154
-0.0206625
-0.0259242
-0.031341
-0.0367804
-0.0423376
-0.0479981
-0.0535898
-0.0591343
-0.0646387
-0.0700541
-0.0752659
-0.080238
-0.0850145
-0.0895221
-0.0937466
-0.0975461
-0.101019
-0.104138
-0.106863
-0.109198
-0.111068
-0.112549
-0.113633
-0.11431
-0.114591
-0.114468
-0.113977
-0.113125
-0.111912
-0.110558
0.0209876
0.0174865
0.01407
0.0104589
0.00670975
0.00280179
-0.00135077
-0.00557969
-0.0100809
-0.0147236
-0.0194835
-0.0244386
-0.0295347
-0.0346512
-0.0398732
-0.0451871
-0.0504374
-0.0556428
-0.0608081
-0.0658888
-0.0707802
-0.0754489
-0.0799324
-0.0841643
-0.0881302
-0.0916997
-0.0949605
-0.0978881
-0.100443
-0.102629
-0.104375
-0.105752
-0.106751
-0.107361
-0.107593
-0.107441
-0.106936
-0.106087
-0.104894
-0.103572
0.0199613
0.0166369
0.0133887
0.00995969
0.00640069
0.00269327
-0.00123941
-0.00524478
-0.00949912
-0.0138839
-0.0183766
-0.0230467
-0.0278446
-0.032661
-0.0375718
-0.0425641
-0.0474968
-0.052386
-0.0572352
-0.0620032
-0.0665951
-0.0709784
-0.0751869
-0.0791582
-0.0828795
-0.0862307
-0.0892904
-0.092034
-0.0944264
-0.0964691
-0.0980976
-0.0993746
-0.100291
-0.100839
-0.101027
-0.100848
-0.100334
-0.0994921
-0.0983246
-0.0970413
0.0190018
0.0158442
0.0127551
0.0094978
0.00611772
0.00259881
-0.00112759
-0.00492339
-0.00894712
-0.013091
-0.0173343
-0.0217389
-0.0262593
-0.0307963
-0.0354174
-0.0401104
-0.0447473
-0.0493419
-0.0538963
-0.0583725
-0.0626834
-0.0667993
-0.070749
-0.0744751
-0.0779655
-0.0811098
-0.0839779
-0.0865479
-0.0887846
-0.0906912
-0.0922072
-0.0933891
-0.0942291
-0.0947181
-0.0948655
-0.0946657
-0.094147
-0.0933171
-0.0921809
-0.0909419
0.0181039
0.0151039
0.0121653
0.00907008
0.00585872
0.00251745
-0.00101505
-0.00461401
-0.0084217
-0.0123402
-0.0163504
-0.0205073
-0.0247689
-0.0290451
-0.0333962
-0.0378102
-0.0421716
-0.0464915
-0.0507704
-0.0549736
-0.0590221
-0.0628867
-0.0665933
-0.0700887
-0.0733613
-0.0763099
-0.0789974
-0.0814014
-0.0834918
-0.0852691
-0.0866782
-0.0877707
-0.0885388
-0.0889741
-0.0890857
-0.0888689
-0.08835
-0.0875375
-0.0864379
-0.0852486
0.0172626
0.0144118
0.0116158
0.00867369
0.00562179
0.00244822
-0.000901773
-0.00431549
-0.00792051
-0.0116278
-0.0154196
-0.0193448
-0.0233645
-0.0273971
-0.031496
-0.0356505
-0.0397544
-0.0438173
-0.0478393
-0.0517875
-0.0555893
-0.0592187
-0.062697
-0.0659755
-0.0690431
-0.0718072
-0.0743232
-0.0765721
-0.0785229
-0.0801783
-0.0814872
-0.0824956
-0.0831965
-0.0835831
-0.0836635
-0.0834338
-0.0829194
-0.0821287
-0.0810704
-0.079935
0.0164736
0.0137641
0.0111032
0.00830617
0.00540522
0.00239015
-0.0007879
-0.004027
-0.0074415
-0.0109504
-0.0145373
-0.0182453
-0.0220386
-0.0258433
-0.0297071
-0.0336186
-0.0374821
-0.0413052
-0.0450863
-0.0487956
-0.0523672
-0.0557755
-0.0590396
-0.0621143
-0.0649891
-0.0675791
-0.0699345
-0.0720354
-0.0738561
-0.0753967
-0.0766107
-0.0775406
-0.0781802
-0.0785222
-0.0785756
-0.0783375
-0.0778311
-0.0770664
-0.0760525
-0.0749747
0.0157329
0.0131574
0.0106249
0.0079653
0.00520736
0.00234223
-0.00067346
-0.00374768
-0.00698278
-0.010305
-0.0136993
-0.0172035
-0.0207849
-0.0243763
-0.0280197
-0.0317045
-0.0353429
-0.0389411
-0.0424973
-0.0459833
-0.0493384
-0.0525396
-0.0556027
-0.058486
-0.0611796
-0.0636059
-0.065809
-0.0677724
-0.0694695
-0.0709022
-0.0720282
-0.0728852
-0.0734671
-0.0737697
-0.0737999
-0.0735565
-0.0730618
-0.0723255
-0.071359
-0.0703402
0.0150369
0.0125886
0.0101782
0.00764898
0.00502662
0.00230364
-0.000558588
-0.00347686
-0.00654277
-0.00968932
-0.0129022
-0.0162152
-0.0195978
-0.0229891
-0.0264265
-0.0298986
-0.0333262
-0.0367141
-0.0400591
-0.0433357
-0.0464885
-0.0494952
-0.0523695
-0.0550732
-0.0575965
-0.0598687
-0.0619296
-0.0637619
-0.0653442
-0.0666761
-0.067719
-0.0685077
-0.069038
-0.069304
-0.0693147
-0.0690692
-0.0685881
-0.0678826
-0.0669642
-0.0660049
0.0143824
0.0120551
0.00976083
0.00735535
0.00486168
0.00227352
-0.000443422
-0.00321402
-0.00612028
-0.00910104
-0.0121433
-0.0152764
-0.0184726
-0.0216763
-0.0249198
-0.0281928
-0.0314228
-0.034613
-0.0377607
-0.0408411
-0.0438035
-0.0466279
-0.0493251
-0.0518601
-0.0542235
-0.0563509
-0.0582772
-0.0599882
-0.0614615
-0.0626986
-0.0636646
-0.0643903
-0.0648716
-0.0651057
-0.0650995
-0.0648535
-0.0643882
-0.0637137
-0.0628436
-0.0619423
0.0137664
0.0115541
0.00937054
0.00708271
0.0047113
0.00225109
-0.000328266
-0.002959
-0.00571433
-0.00853878
-0.01142
-0.0143842
-0.017405
-0.0204318
-0.0234938
-0.0265797
-0.029624
-0.0326293
-0.0355913
-0.0384875
-0.041272
-0.0439247
-0.0464557
-0.0488322
-0.0510455
-0.0530367
-0.0548375
-0.0564329
-0.0578051
-0.0589537
-0.059847
-0.0605137
-0.0609511
-0.0611549
-0.0611343
-0.0608894
-0.0604401
-0.0597966
-0.0589732
-0.0581273
0.0131862
0.0110834
0.00900529
0.00682943
0.00457428
0.00223559
-0.000213441
-0.00271163
-0.00532429
-0.0080009
-0.0107304
-0.0135352
-0.0163909
-0.0192516
-0.0221423
-0.0250527
-0.0279228
-0.0307537
-0.0335419
-0.0362656
-0.0388822
-0.0413739
-0.0437487
-0.0459765
-0.0480488
-0.0499121
-0.0515941
-0.0530826
-0.0543588
-0.0554241
-0.05625
-0.056862
-0.0572572
-0.0574344
-0.0574003
-0.0571575
-0.0567235
-0.0561101
-0.0553303
-0.0545359
0.0126394
0.0106407
0.00866322
0.00659394
0.0044494
0.00222623
-9.92271e-05
-0.0024717
-0.00494928
-0.00748639
-0.0100723
-0.0127267
-0.0154269
-0.0181308
-0.0208607
-0.0236059
-0.0263119
-0.0289796
-0.0316039
-0.0341653
-0.0366247
-0.038965
-0.041193
-0.043281
-0.0452209
-0.0469639
-0.048535
-0.0499215
-0.0511085
-0.0520959
-0.0528579
-0.0534182
-0.0537752
-0.0539264
-0.0538804
-0.0536392
-0.0532198
-0.0526339
-0.0518943
-0.0511458
0.0121235
0.0102242
0.00834258
0.00637481
0.00433558
0.00222228
1.40884e-05
-0.00223894
-0.00458886
-0.00699373
-0.00944396
-0.0119564
-0.0145098
-0.017066
-0.019644
-0.022234
-0.0247857
-0.0272992
-0.0297699
-0.0321789
-0.0344901
-0.0366882
-0.0387782
-0.0407349
-0.0425503
-0.0441801
-0.0456462
-0.0469381
-0.0480404
-0.0489543
-0.0496566
-0.0501686
-0.0504884
-0.050616
-0.0505581
-0.0503176
-0.0499113
-0.0493496
-0.048646
-0.0479374
0.0116366
0.00983184
0.00804181
0.00617076
0.00423184
0.00222309
0.000126384
-0.00201342
-0.00424213
-0.006522
-0.00884371
-0.0112219
-0.0136368
-0.0160533
-0.0184885
-0.020932
-0.0233384
-0.0257071
-0.0280328
-0.0302983
-0.0324707
-0.0345347
-0.036495
-0.038328
-0.0400263
-0.0415495
-0.0429173
-0.0441191
-0.0451424
-0.0459872
-0.0466326
-0.0470985
-0.0473841
-0.0474879
-0.0474182
-0.0471776
-0.0467817
-0.0462408
-0.045568
-0.0448928
0.0111767
0.00946212
0.00775947
0.00598061
0.00413727
0.00222817
0.000237198
-0.00179475
-0.00390874
-0.00607004
-0.00827001
-0.0105212
-0.0128052
-0.0150901
-0.0173901
-0.0196957
-0.0219651
-0.024197
-0.0263867
-0.0285172
-0.0305584
-0.0324964
-0.0343346
-0.0360513
-0.0376393
-0.0390621
-0.0403368
-0.0414546
-0.0424026
-0.043182
-0.0437741
-0.0441963
-0.0444479
-0.0445294
-0.0444472
-0.0442048
-0.0438165
-0.0432927
-0.0426449
-0.0419962
0.0107421
0.00911346
0.00749424
0.00580328
0.00405108
0.00223679
0.000346546
-0.00158302
-0.00358802
-0.00563689
-0.00772149
-0.00985254
-0.0120128
-0.014173
-0.0163456
-0.018521
-0.0206611
-0.0227645
-0.0248254
-0.0268288
-0.0287467
-0.0305659
-0.0322891
-0.0338963
-0.0353805
-0.0367086
-0.0378959
-0.0389334
-0.0398111
-0.0405287
-0.0410694
-0.0414497
-0.0416693
-0.0417278
-0.0416325
-0.0413864
-0.041003
-0.0404917
-0.0398637
-0.0392342
0.0103312
0.00878448
0.00724492
0.00563778
0.00397246
0.00224865
0.000454052
-0.00137799
-0.00327952
-0.00522171
-0.00719691
-0.00921414
-0.0112573
-0.0132997
-0.0153517
-0.0174043
-0.0194225
-0.0214041
-0.0233442
-0.0252278
-0.0270292
-0.0287365
-0.0303513
-0.0318553
-0.0332417
-0.0344804
-0.0355848
-0.0365475
-0.0373578
-0.0380165
-0.0385087
-0.0388488
-0.0390365
-0.0390725
-0.038963
-0.0387112
-0.0383295
-0.0378268
-0.037213
-0.0365962
0.00994253
0.0084739
0.0070104
0.00548322
0.00390084
0.00226312
0.00055968
-0.00117957
-0.0029828
-0.00482373
-0.0066951
-0.0086045
-0.0105368
-0.0124675
-0.0144058
-0.0163423
-0.0182452
-0.0201122
-0.0219379
-0.0237085
-0.0254004
-0.027002
-0.0285146
-0.0299213
-0.0312154
-0.0323697
-0.0333961
-0.0342871
-0.0350342
-0.0356371
-0.0360825
-0.0363835
-0.0365405
-0.0365534
-0.0364287
-0.0361692
-0.0357863
-0.035288
-0.0346835
-0.034073
0.00957467
0.00818054
0.00678968
0.00533885
0.00383544
0.00227996
0.000663183
-0.000987673
-0.00269747
-0.00444222
-0.00621503
-0.0080222
-0.00984951
-0.0116747
-0.013505
-0.0153319
-0.0171259
-0.0188845
-0.0206024
-0.0222665
-0.0238547
-0.0253567
-0.026773
-0.0280877
-0.0292948
-0.0303693
-0.0313216
-0.0321455
-0.0328319
-0.0333816
-0.0337823
-0.0340458
-0.0341721
-0.034162
-0.034021
-0.0337519
-0.0333648
-0.0328674
-0.0322672
-0.0316577
0.00922639
0.0079033
0.00658185
0.00520377
0.00377586
0.00229866
0.000764463
-0.000802193
-0.00242316
-0.00407652
-0.00575574
-0.00746594
-0.00919379
-0.0109188
-0.0126471
-0.0143703
-0.0160614
-0.0177177
-0.0193336
-0.0208969
-0.0223877
-0.0237955
-0.0251207
-0.0263487
-0.0274736
-0.0284726
-0.0293551
-0.0301146
-0.030744
-0.031243
-0.0316005
-0.0318274
-0.031924
-0.0318904
-0.0317321
-0.0314516
-0.0310581
-0.0305581
-0.0299582
-0.0293449
0.00889652
0.00764119
0.00638599
0.0050774
0.00372142
0.00231896
0.000863406
-0.000623041
-0.00215953
-0.00372604
-0.00531634
-0.00693451
-0.00856805
-0.0101982
-0.0118298
-0.013455
-0.0150487
-0.0166081
-0.0181278
-0.0195961
-0.0209944
-0.0223135
-0.0235527
-0.0246988
-0.025746
-0.0266737
-0.0274898
-0.028189
-0.0287635
-0.029214
-0.0295302
-0.0297218
-0.0297888
-0.0297319
-0.0295555
-0.0292622
-0.0288599
-0.0283547
-0.0277517
-0.0271307
0.00858399
0.00739325
0.00620133
0.00495903
0.00367173
0.00234054
0.00095989
-0.000450133
-0.00190627
-0.0033902
-0.00489599
-0.00642682
-0.00797097
-0.00951105
-0.0110513
-0.0125835
-0.0140851
-0.015553
-0.0169816
-0.01836
-0.0196714
-0.0209064
-0.0220644
-0.0231331
-0.0241069
-0.024967
-0.0257205
-0.0263618
-0.0268847
-0.0272888
-0.0275652
-0.0277224
-0.0277608
-0.0276803
-0.0274854
-0.027178
-0.0267654
-0.0262527
-0.0256441
-0.0250124
0.00828778
0.00715863
0.00602717
0.00484809
0.0036263
0.00236311
0.00105382
-0.000283387
-0.00166307
-0.00306847
-0.00449394
-0.00594184
-0.00740113
-0.00885598
-0.0103093
-0.0117537
-0.0131682
-0.0145493
-0.0158919
-0.0171855
-0.0184144
-0.0195701
-0.0206514
-0.0216469
-0.0225514
-0.0233476
-0.0240415
-0.0246284
-0.0251017
-0.0254616
-0.0256999
-0.0258241
-0.0258342
-0.0257305
-0.0255168
-0.0251946
-0.0247705
-0.0242487
-0.0236325
-0.0229884
0.00800695
0.00693658
0.00586275
0.00474403
0.00358476
0.0023864
0.00114509
-0.000122721
-0.00142966
-0.00276037
-0.00410946
-0.00547861
-0.00685743
-0.00823125
-0.00960252
-0.0109636
-0.0122956
-0.0135947
-0.0148558
-0.0160691
-0.0172202
-0.0183009
-0.0193098
-0.0202362
-0.021075
-0.0218107
-0.0224484
-0.0229832
-0.0234098
-0.0237276
-0.0239293
-0.0240216
-0.0240045
-0.0238779
-0.0236453
-0.023308
-0.0228717
-0.02234
-0.0217151
-0.0210577
0.00774067
0.00672624
0.00570751
0.00464634
0.00354668
0.00241019
0.00123365
3.19606e-05
-0.00120576
-0.00246542
-0.00374188
-0.00503622
-0.00633866
-0.00763576
-0.00892897
-0.0102114
-0.0114651
-0.0126865
-0.0138707
-0.0150082
-0.0160856
-0.0170954
-0.0180358
-0.0188969
-0.0196738
-0.0203522
-0.0209365
-0.0214224
-0.0218042
-0.022082
-0.0222489
-0.0223107
-0.0222671
-0.0221184
-0.0218673
-0.0215149
-0.0210662
-0.0205242
-0.0198903
-0.0192195
0.00748806
0.006527
0.0055608
0.00455451
0.00351178
0.00243426
0.00131942
0.000180748
-0.000991093
-0.00218317
-0.00339058
-0.00461387
-0.00584385
-0.00706797
-0.00828745
-0.00949511
-0.0106748
-0.0118228
-0.012934
-0.0139998
-0.0150078
-0.0159505
-0.0168261
-0.0176255
-0.0183438
-0.0189682
-0.0195021
-0.0199413
-0.0202811
-0.0205209
-0.0206545
-0.0206872
-0.0206185
-0.0204484
-0.0201794
-0.0198124
-0.0193515
-0.0187996
-0.0181569
-0.0174737
0.00724838
0.00633813
0.00542209
0.00446819
0.00347967
0.00245841
0.00140234
0.000323723
-0.000785429
-0.00191323
-0.00305499
-0.00421079
-0.00537194
-0.00652699
-0.0076763
-0.00881328
-0.00992282
-0.0110012
-0.0120436
-0.0130417
-0.0139838
-0.0148631
-0.0156777
-0.0164187
-0.0170818
-0.017655
-0.0181412
-0.0185367
-0.0188365
-0.0190403
-0.0191426
-0.0191477
-0.019055
-0.0188647
-0.0185786
-0.0181978
-0.0177256
-0.0171644
-0.0165142
-0.0158199
0.00702089
0.00615908
0.00529085
0.00438685
0.00345013
0.00248246
0.00148237
0.000460965
-0.000588534
-0.00165521
-0.00273454
-0.00382624
-0.0049221
-0.00601145
-0.00709442
-0.00816433
-0.00920743
-0.01022
-0.0111972
-0.0121312
-0.0130112
-0.0138307
-0.0145875
-0.0152735
-0.0158845
-0.0164095
-0.0168508
-0.0172046
-0.017467
-0.017637
-0.0177096
-0.0176886
-0.0175736
-0.0173642
-0.0170625
-0.0166689
-0.0161865
-0.0156175
-0.0149609
-0.0142579
0.00680495
0.00598919
0.00516659
0.00431022
0.00342278
0.00250624
0.00155946
0.000592553
-0.000400187
-0.00140872
-0.00242871
-0.00345952
-0.0044934
-0.00552054
-0.00654038
-0.00754687
-0.00852709
-0.00947728
-0.0103929
-0.0112664
-0.0120876
-0.0128506
-0.0135529
-0.0141871
-0.0147489
-0.0152284
-0.0156274
-0.0159424
-0.0161693
-0.0163076
-0.0163525
-0.0163071
-0.0161711
-0.0159444
-0.0156283
-0.0152234
-0.0147324
-0.0141569
-0.0134962
-0.012787
0.00659985
0.005828
0.00504886
0.00423782
0.00339744
0.00252959
0.00163357
0.000718567
-0.000220176
-0.00117342
-0.002137
-0.00310998
-0.00408507
-0.00505302
-0.00601324
-0.00695954
-0.00788022
-0.00877155
-0.00962883
-0.0104451
-0.011211
-0.0119205
-0.0125715
-0.0131568
-0.0136723
-0.014109
-0.0144683
-0.0147466
-0.0149405
-0.0150491
-0.0150681
-0.0150002
-0.0148453
-0.0146025
-0.0142737
-0.0138592
-0.0133613
-0.0127816
-0.0121187
-0.0114063
0.00640505
0.00567491
0.0049372
0.00416942
0.0033738
0.00255237
0.00170467
0.000839085
-4.8298e-05
-0.000948966
-0.00185893
-0.002777
-0.00369625
-0.00460821
-0.00551172
-0.00640114
-0.0072655
-0.00810099
-0.00890329
-0.00966557
-0.010379
-0.0110383
-0.0116408
-0.0121801
-0.0126522
-0.0130487
-0.0133706
-0.0136148
-0.0137777
-0.0138587
-0.0138538
-0.0137654
-0.0135929
-0.0133362
-0.0129964
-0.0125741
-0.0120713
-0.0114893
-0.010827
-0.0101146
0.00621991
0.00552948
0.00483125
0.0041046
0.00335169
0.00257443
0.00177272
0.000954185
0.000115641
-0.00073505
-0.00159407
-0.00245999
-0.0033263
-0.00418504
-0.005035
-0.00587049
-0.00668151
-0.00746435
-0.00821453
-0.0089258
-0.00959
-0.0102018
-0.0107588
-0.0112548
-0.011686
-0.0120448
-0.0123319
-0.012544
-0.0126784
-0.0127339
-0.012707
-0.0125998
-0.0124119
-0.0121429
-0.0117941
-0.0113659
-0.0108602
-0.0102785
-0.00961901
-0.00891005
0.00604391
0.00539124
0.00473059
0.00404316
0.00333084
0.00259567
0.00183772
0.00106394
0.000271831
-0.000531371
-0.00134198
-0.0021584
-0.00297447
-0.00378286
-0.00458193
-0.00536648
-0.00612707
-0.00685999
-0.00756113
-0.00822431
-0.00884191
-0.00940911
-0.00992323
-0.0103786
-0.0107716
-0.0110951
-0.0113495
-0.0115322
-0.0116398
-0.0116719
-0.0116251
-0.0115011
-0.0112995
-0.0110203
-0.0106643
-0.0102323
-0.00972594
-0.0091465
-0.00849296
-0.00779045
0.00587653
0.00525976
0.00463489
0.00398473
0.00331111
0.00261597
0.00189963
0.00116845
0.000420459
-0.000337626
-0.00110226
-0.0018717
-0.00264017
-0.00340072
-0.00415177
-0.00488802
-0.0056009
-0.00628682
-0.0069415
-0.00755931
-0.00813323
-0.00865835
-0.00913225
-0.00954955
-0.00990667
-0.0101972
-0.0104214
-0.0105765
-0.0106598
-0.0106705
-0.0106056
-0.0104667
-0.0102536
-0.00996577
-0.0096047
-0.00917083
-0.00866586
-0.00809144
-0.0074459
-0.00675322
0.00571727
0.0051346
0.00454378
0.00392911
0.00329226
0.00263523
0.00195845
0.00126777
0.000561706
-0.000153529
-0.000874512
-0.00159941
-0.00232271
-0.00303806
-0.00374347
-0.00443414
-0.00510196
-0.00574334
-0.00635437
-0.0069295
-0.00746211
-0.0079478
-0.00838396
-0.00876557
-0.00908926
-0.00934916
-0.00954519
-0.00967505
-0.00973589
-0.00972711
-0.00964618
-0.00949431
-0.0092712
-0.00897706
-0.00861269
-0.00817898
-0.00767767
-0.00711006
-0.00647543
-0.00579527
0.00556566
0.00501539
0.00445694
0.003876
0.00327417
0.00265335
0.00201418
0.00136199
0.000695748
2.11946e-05
-0.000658371
-0.00134102
-0.00202157
-0.00269399
-0.00335637
-0.00400388
-0.0046291
-0.00522858
-0.00579831
-0.00633324
-0.00682719
-0.00727579
-0.00767657
-0.00802484
-0.00831735
-0.00854876
-0.0087189
-0.00882529
-0.00886587
-0.00883966
-0.00874439
-0.00858133
-0.00835042
-0.00805142
-0.00768574
-0.00725412
-0.00675824
-0.0062
-0.00557802
-0.00491323
0.00542125
0.00490174
0.00437406
0.00382521
0.00325662
0.00267024
0.0020668
0.0014512
0.000822753
0.000186806
-0.000453471
-0.00109608
-0.00173611
-0.002368
-0.00298954
-0.00359634
-0.00418138
-0.00474122
-0.00527221
-0.00576934
-0.00622681
-0.00664071
-0.0070084
-0.00732557
-0.00758909
-0.00779411
-0.00794024
-0.00802549
-0.00804745
-0.00800562
-0.00789801
-0.00772561
-0.00748829
-0.00718652
-0.00682118
-0.00639341
-0.00590503
-0.00535759
-0.00475075
-0.00410344
0.00528362
0.00479329
0.00429487
0.00377646
0.00323951
0.00268584
0.00211633
0.00153546
0.00094289
0.000343564
-0.00025946
-0.000864138