/*--------------------------------*- C++ -*----------------------------------*\
| =========                 |                                                 |
| \\      /  F ield         | OpenFOAM: The Open Source CFD Toolbox           |
|  \\    /   O peration     | Version:  3.0.1                                 |
|   \\  /    A nd           | Web:      www.OpenFOAM.org                      |
|    \\/     M anipulation  |                                                 |
\*---------------------------------------------------------------------------*/
FoamFile
{
    version     2.0;
    format      ascii;
    class       surfaceScalarField;
    location    "250";
    object      phi;
}
// * * * * * * * * * * * * * * * * * * * * * * * * * * * * * * * * * * * * * //

dimensions      [0 3 -1 0 0 0 0];

internalField   nonuniform List<scalar> 
115520
(
0.0127965
-0.00192613
-0.0108701
0.0139668
-0.00117023
0.0142013
-0.000234394
0.0139208
0.000280584
0.0133749
0.000546012
0.0127193
0.000655723
0.0121264
0.00059295
0.0115713
0.000555221
0.0111479
0.000423457
0.0108608
0.000287194
0.0106678
0.000193076
0.0105778
9.00616e-05
0.0105934
-1.55271e-05
0.0106623
-6.88168e-05
0.0107664
-0.000104011
0.0109078
-0.000141327
0.0110758
-0.000167983
0.0112524
-0.000176575
0.0114293
-0.000176856
0.0116078
-0.000178438
0.0117912
-0.000183326
0.0119693
-0.000178143
0.0121384
-0.000168996
0.0122954
-0.000156962
0.0124497
-0.000154272
0.0125962
-0.000146475
0.0127323
-0.00013607
0.0128564
-0.000124095
0.0129672
-0.000110747
0.0130719
-0.000104645
0.0131662
-9.4315e-05
0.0132491
-8.28522e-05
0.0133201
-7.09608e-05
0.0133789
-5.88119e-05
0.0134154
-3.63841e-05
0.0134015
1.38595e-05
0.0133622
3.93817e-05
0.0133246
3.7543e-05
0.013318
6.71141e-06
-4.61902e-05
0.0133641
0.00823739
-0.00307549
-0.007088
0.0092639
-0.00219669
0.0102142
-0.00118457
0.0110475
-0.000552643
0.0117315
-0.000137997
0.0122371
0.000150233
0.0125962
0.000233859
0.0128058
0.000345681
0.0129338
0.000295579
0.0130081
0.000212874
0.0130265
0.000174803
0.0130329
8.36874e-05
0.0130661
-4.86344e-05
0.0131003
-0.000103035
0.0131428
-0.000146458
0.0132217
-0.00022018
0.013323
-0.000269236
0.0134324
-0.000285998
0.0135481
-0.000292499
0.0136798
-0.000310105
0.0138245
-0.00032801
0.0139684
-0.000321975
0.0141094
-0.000309997
0.0142453
-0.000292819
0.0143896
-0.000298525
0.0145277
-0.000284561
0.0146578
-0.000266081
0.0147785
-0.000244789
0.0148886
-0.000220884
0.0149983
-0.000214245
0.0150972
-0.000193243
0.0151847
-0.000170291
0.0152598
-0.000145999
0.0153213
-0.00012037
0.0153726
-8.76066e-05
0.0154099
-2.34036e-05
0.0154375
1.17941e-05
0.0154611
1.39577e-05
0.0154869
-1.91036e-05
-8.85756e-05
0.0155293
0.00763216
-0.00411231
-0.00659531
0.00858547
-0.00314996
0.00947158
-0.00207064
0.0102345
-0.00131549
0.0109074
-0.000810879
0.0114946
-0.000436947
0.0119763
-0.000247811
0.0123851
-6.30743e-05
0.0127094
-2.8663e-05
0.0129686
-4.62845e-05
0.0131734
-2.99517e-05
0.0133403
-8.3242e-05
0.0134921
-0.000200336
0.0136259
-0.000236834
0.0137503
-0.00027086
0.0138869
-0.000356718
0.0140309
-0.000413176
0.0141757
-0.000430751
0.0143218
-0.000438606
0.0144768
-0.000465118
0.0146383
-0.000489423
0.0147969
-0.000480585
0.0149519
-0.000464984
0.015102
-0.000442919
0.0152556
-0.000452115
0.015402
-0.000430849
0.0155398
-0.000403942
0.0156687
-0.000373648
0.0157879
-0.000339989
0.0159029
-0.00032929
0.0160066
-0.00029694
0.0160985
-0.000262167
0.0161782
-0.000225617
0.0162449
-0.000187135
0.0163007
-0.000143294
0.0163425
-6.52433e-05
0.0163713
-1.6939e-05
0.0163911
-5.85109e-06
0.016403
-3.10081e-05
-9.22228e-05
0.0164067
0.00694372
-0.00499377
-0.00606228
0.00780645
-0.00401267
0.00865413
-0.00291829
0.00943472
-0.00209606
0.0101515
-0.00152768
0.0107994
-0.00108482
0.0113624
-0.00081074
0.0118678
-0.000568464
0.0123025
-0.000463295
0.0126793
-0.000423101
0.0130067
-0.000357341
0.0132911
-0.000367549
0.0135461
-0.000455373
0.013774
-0.000464696
0.01398
-0.000476809
0.0141798
-0.000556564
0.0143743
-0.000607585
0.0145609
-0.000617369
0.0147416
-0.000619321
0.014924
-0.000647481
0.0151076
-0.000672942
0.0152855
-0.000658555
0.0154576
-0.00063702
0.015623
-0.000608337
0.0157896
-0.000618665
0.0159481
-0.000589282
0.0160973
-0.00055314
0.0162367
-0.000513026
0.0163656
-0.000468922
0.0164897
-0.000453327
0.0166021
-0.000409296
0.0167022
-0.000362318
0.0167897
-0.000313117
0.0168642
-0.000261544
0.016928
-0.000207103
0.0169794
-0.0001166
0.0170175
-5.50252e-05
0.0170439
-3.22331e-05
0.0170595
-4.66343e-05
-9.65335e-05
0.0170638
0.0065901
-0.00580402
-0.00577987
0.00739619
-0.00481876
0.00820657
-0.00372866
0.00898129
-0.00287077
0.00971909
-0.00226546
0.0104094
-0.00177512
0.0110273
-0.00142859
0.0116
-0.00114118
0.0121064
-0.000969656
0.0125567
-0.000873395
0.0129614
-0.000762011
0.0133207
-0.000726839
0.0136428
-0.00077747
0.0139349
-0.000756777
0.0142008
-0.000742689
0.0144506
-0.000806383
0.0146876
-0.000844494
0.0149117
-0.000841444
0.0151251
-0.000832764
0.0153342
-0.00085659
0.0155396
-0.000878319
0.0157369
-0.000855825
0.0159261
-0.000826232
0.0161071
-0.000789294
0.016286
-0.000797569
0.0164557
-0.000758904
0.0166151
-0.000712574
0.016764
-0.000661854
0.0169018
-0.0006067
0.0170328
-0.000584389
0.0171516
-0.000528066
0.0172576
-0.000468321
0.0173506
-0.000406052
0.0174302
-0.000341142
0.0174985
-0.000275409
0.0175541
-0.000172188
0.0175958
-9.67451e-05
0.0176241
-6.04532e-05
0.0176388
-6.13505e-05
-9.7122e-05
0.0176394
0.00634624
-0.00657092
-0.00557936
0.00711511
-0.00558764
0.00789429
-0.00450784
0.00865482
-0.00363129
0.00939636
-0.003007
0.0101088
-0.00248756
0.0107649
-0.00208466
0.0113879
-0.00176422
0.0119525
-0.00153421
0.0124651
-0.00138606
0.0129358
-0.00123268
0.0133606
-0.00115164
0.0137436
-0.00116045
0.0140944
-0.00110749
0.0144155
-0.00106381
0.0147132
-0.00110403
0.014992
-0.00112329
0.0152536
-0.00110303
0.0155002
-0.00107937
0.0157371
-0.00109348
0.0159658
-0.00110701
0.0161837
-0.0010737
0.0163911
-0.00103367
0.0165882
-0.0009864
0.0167804
-0.000989744
0.016962
-0.000940434
0.0171322
-0.000882762
0.0172907
-0.00082038
0.0174372
-0.00075321
0.0175756
-0.000722741
0.017701
-0.000653414
0.0178129
-0.000580244
0.0179111
-0.000504282
0.0179955
-0.00042545
0.0180678
-0.000347698
0.0181268
-0.000231218
0.0181713
-0.000141287
0.0182014
-9.05217e-05
0.0182169
-7.68254e-05
-9.76241e-05
0.0182174
0.00619083
-0.00731601
-0.00544577
0.0069391
-0.00633591
0.00769807
-0.00526683
0.00844602
-0.00437925
0.0091844
-0.00374538
0.00990572
-0.00320888
0.0105844
-0.00276333
0.0112409
-0.00242078
0.0118485
-0.00214177
0.0124105
-0.00194802
0.0129356
-0.00175785
0.0134168
-0.00163281
0.0138543
-0.00159789
0.0142588
-0.00151199
0.0146318
-0.00143684
0.0149759
-0.0014481
0.0152964
-0.00144385
0.0155962
-0.0014028
0.0158773
-0.00136044
0.0161438
-0.00135997
0.0163978
-0.00136102
0.0166383
-0.00131418
0.0168659
-0.00126121
0.0170809
-0.00120138
0.0172878
-0.0011967
0.0174826
-0.00113515
0.0176646
-0.00106476
0.0178337
-0.00098947
0.0179896
-0.000909151
0.0181357
-0.000868861
0.018268
-0.000785639
0.018386
-0.000698218
0.0184895
-0.000607783
0.0185783
-0.000514288
0.0186542
-0.000423553
0.018716
-0.000293006
0.0187625
-0.000187814
0.0187936
-0.000121646
0.0188092
-9.23419e-05
-9.72415e-05
0.0188088
0.0060926
-0.00805249
-0.00535615
0.00683213
-0.00707544
0.00758102
-0.00601573
0.00832217
-0.0051204
0.00905802
-0.00448123
0.00978345
-0.00393432
0.0104762
-0.00345607
0.0111547
-0.00309924
0.0117931
-0.00278022
0.0123928
-0.00254775
0.0129615
-0.00232648
0.0134898
-0.0021611
0.0139749
-0.00208306
0.0144279
-0.00196495
0.014849
-0.00185794
0.0152376
-0.00183668
0.0155993
-0.00180559
0.0159376
-0.00174107
0.0162542
-0.001677
0.0165519
-0.0016577
0.0168333
-0.00164236
0.0170984
-0.00157932
0.0173481
-0.00151091
0.0175829
-0.00143619
0.0178066
-0.00142035
0.0180162
-0.00134477
0.0182116
-0.00126012
0.0183926
-0.00117047
0.0185591
-0.00107567
0.0187141
-0.00102379
0.018854
-0.000925623
0.0189788
-0.000822965
0.0190881
-0.000717113
0.0191819
-0.00060804
0.0192616
-0.000503242
0.0193263
-0.000357704
0.0193749
-0.000236402
0.0194072
-0.00015394
0.019423
-0.000108146
-9.63519e-05
0.0194221
0.00603573
-0.00878956
-0.00529868
0.00677523
-0.00781495
0.00752233
-0.00676285
0.00826295
-0.00586103
0.00899986
-0.00521815
0.00972963
-0.00466409
0.0104333
-0.00415975
0.0111276
-0.00379352
0.011789
-0.00344169
0.0124179
-0.00317662
0.0130209
-0.00292948
0.0135879
-0.00272806
0.0141139
-0.00260908
0.0146094
-0.00246049
0.0150739
-0.00232239
0.015504
-0.00226683
0.0159053
-0.00220687
0.0162813
-0.00211706
0.0166334
-0.00202904
0.0169631
-0.00198746
0.0172731
-0.00195232
0.0175644
-0.00187065
0.017838
-0.00178443
0.0180943
-0.00169256
0.0183364
-0.00166244
0.0185626
-0.00157097
0.0187729
-0.00147037
0.0189672
-0.00136481
0.0191456
-0.00125406
0.0193105
-0.00118869
0.0194593
-0.00107437
0.0195917
-0.000955347
0.0197075
-0.000832994
0.0198068
-0.000707297
0.0198908
-0.000587237
0.0199588
-0.000425671
0.0200097
-0.00028732
0.0200434
-0.000187611
0.0200596
-0.000124397
-9.50434e-05
0.0200583
0.00600965
-0.00953383
-0.00526541
0.00675558
-0.00856089
0.0075074
-0.00751468
0.0082531
-0.00660674
0.00899539
-0.00596045
0.00973188
-0.00540059
0.0104465
-0.00487437
0.0111544
-0.00450139
0.0118348
-0.00412209
0.0124874
-0.00382927
0.0131183
-0.00356043
0.0137174
-0.00332708
0.0142783
-0.00317003
0.0148109
-0.00299309
0.0153139
-0.00282534
0.0157821
-0.00273504
0.0162204
-0.00264523
0.0166325
-0.00252911
0.0170191
-0.00241565
0.0173808
-0.00234914
0.0177199
-0.00229143
0.0180383
-0.00218903
0.0183367
-0.00208286
0.0186159
-0.00197171
0.0188778
-0.00192437
0.019122
-0.00181514
0.0193485
-0.00169687
0.0195574
-0.00157375
0.0197489
-0.0014455
0.0199249
-0.00136467
0.0200834
-0.0012329
0.0202243
-0.00109626
0.0203476
-0.000956209
0.020453
-0.000812731
0.0205419
-0.000676113
0.0206136
-0.000497391
0.0206673
-0.000340965
0.0207026
-0.000222989
0.0207196
-0.00014136
-9.35002e-05
0.0207181
0.00600737
-0.0102903
-0.00525093
0.00676472
-0.00931825
0.00752641
-0.00827637
0.00828191
-0.00736224
0.0090337
-0.00671226
0.00978004
-0.00614694
0.0105071
-0.00560147
0.0112287
-0.00522295
0.0119265
-0.00481987
0.0126001
-0.00450287
0.013255
-0.0042154
0.0138816
-0.00395361
0.0144729
-0.0037614
0.0150381
-0.00355824
0.0155752
-0.00336252
0.0160781
-0.00323788
0.0165509
-0.003118
0.0169969
-0.00297514
0.0174166
-0.00283534
0.0178094
-0.00274201
0.0181776
-0.00265955
0.0185232
-0.00253467
0.018847
-0.0024067
0.0191497
-0.00227436
0.0194324
-0.00220711
0.0196956
-0.00207831
0.0199394
-0.00194067
0.020164
-0.00179835
0.0203695
-0.00165101
0.0205576
-0.00155274
0.0207268
-0.00140212
0.0208771
-0.00124654
0.0210084
-0.0010875
0.0211207
-0.000924995
0.021215
-0.000770446
0.021291
-0.000573354
0.0213478
-0.000397745
0.0213852
-0.000260405
0.0214031
-0.000159289
-9.18988e-05
0.0214015
0.00602403
-0.0110629
-0.00525145
0.00679679
-0.010091
0.0075725
-0.00905209
0.00834177
-0.00813152
0.00910677
-0.00747726
0.00986611
-0.00690629
0.0106079
-0.00634322
0.0113443
-0.00595945
0.0120596
-0.00553508
0.0127531
-0.00519641
0.01343
-0.00489237
0.0140813
-0.00460488
0.0147
-0.00438014
0.0152944
-0.00415258
0.0158624
-0.0039305
0.0163969
-0.0037724
0.0169016
-0.00362267
0.0173794
-0.00345301
0.0178305
-0.00328642
0.0182535
-0.00316497
0.01865
-0.00305611
0.0190227
-0.00290734
0.019372
-0.002756
0.0196985
-0.00260082
0.0200026
-0.00251126
0.0202855
-0.00236118
0.0205474
-0.00220253
0.0207884
-0.00203939
0.0210088
-0.00187138
0.0212097
-0.00175369
0.0213904
-0.00158279
0.0215508
-0.00140689
0.0216908
-0.00122752
0.0218105
-0.00104467
0.0219108
-0.000870755
0.0219914
-0.000654011
0.0220517
-0.000458037
0.0220915
-0.000300162
0.0221106
-0.000178416
-9.03826e-05
0.0221091
0.0060562
-0.0118549
-0.00526423
0.00684765
-0.0108825
0.00764084
-0.00984529
0.00842724
-0.00891792
0.00920869
-0.00825872
0.00998402
-0.00768163
0.0107427
-0.00710193
0.011496
-0.00671268
0.0122295
-0.00626864
0.0129431
-0.00590997
0.0136413
-0.00559063
0.0143159
-0.00527948
0.0149602
-0.00502439
0.0155815
-0.00477389
0.0161778
-0.00452684
0.0167417
-0.00433629
0.0172762
-0.00415718
0.017784
-0.00396086
0.0182649
-0.00376728
0.0187168
-0.00361685
0.019141
-0.00348036
0.0195403
-0.00330655
0.0199148
-0.00313055
0.0202651
-0.00295108
0.0205909
-0.00283711
0.0208939
-0.00266417
0.0211743
-0.00248295
0.0214324
-0.00229743
0.0216682
-0.00210719
0.0218827
-0.00196817
0.0220754
-0.00177554
0.0222464
-0.0015779
0.0223957
-0.00137681
0.0225233
-0.00117224
0.02263
-0.000977482
0.0227158
-0.000739744
0.0227799
-0.000522157
0.0228222
-0.000342511
0.0228427
-0.000198922
-8.90631e-05
0.0228414
0.0061014
-0.012669
-0.00528727
0.00691434
-0.0116954
0.00772795
-0.0106589
0.00853437
-0.00972435
0.00933514
-0.0090595
0.0101292
-0.00847568
0.0109072
-0.00787992
0.0116791
-0.00748464
0.0124324
-0.00702193
0.0131667
-0.00664431
0.0138865
-0.00631037
0.014584
-0.00597696
0.0152528
-0.00569324
0.0158998
-0.00542087
0.0165229
-0.00514992
0.0171145
-0.00492793
0.0176773
-0.00471993
0.0182135
-0.00449715
0.0187228
-0.00427652
0.0192025
-0.00409656
0.0196537
-0.00393153
0.0200789
-0.00373176
0.0204783
-0.00352996
0.0208522
-0.00332496
0.0211998
-0.00318475
0.0215231
-0.0029875
0.0218224
-0.00278223
0.0220978
-0.00257283
0.0223495
-0.00235886
0.022578
-0.00219667
0.0227833
-0.00198085
0.0229654
-0.00176003
0.0231244
-0.00153579
0.0232603
-0.00130811
0.0233738
-0.00109099
0.0234649
-0.000830868
0.0235331
-0.000590363
0.0235783
-0.00038765
0.0236003
-0.000220939
-8.80013e-05
0.0235993
0.00615781
-0.0135077
-0.00531909
0.00699473
-0.0125324
0.00783133
-0.0114955
0.00866032
-0.0105534
0.00948296
-0.00988214
0.0102982
-0.00929093
0.0110977
-0.00867938
0.0118904
-0.00827735
0.012665
-0.00779655
0.0134212
-0.00740057
0.0141632
-0.00705229
0.0148837
-0.00669756
0.015577
-0.00638648
0.016249
-0.00609294
0.016898
-0.00579885
0.0175163
-0.00554628
0.0181062
-0.00530985
0.0186699
-0.00506078
0.0192064
-0.00481309
0.0197131
-0.00460321
0.0201905
-0.00440894
0.0206411
-0.0041824
0.021065
-0.00395386
0.0214623
-0.00372222
0.0218317
-0.00355417
0.0221754
-0.00333124
0.0224938
-0.00310054
0.0227868
-0.00286584
0.0230546
-0.00262668
0.0232975
-0.00243955
0.0235157
-0.00219907
0.0237093
-0.00195364
0.0238783
-0.00170481
0.0240228
-0.00145259
0.0241434
-0.00121157
0.0242402
-0.000927631
0.0243127
-0.00066285
0.0243607
-0.000435718
0.0243843
-0.000244547
-8.72126e-05
0.0243836
0.00622413
-0.0143733
-0.00535861
0.00708725
-0.0133955
0.00794915
-0.0123574
0.00880303
-0.0114072
0.00964983
-0.0107289
0.0104886
-0.0101297
0.0113116
-0.00950239
0.012127
-0.0090928
0.0129246
-0.00859417
0.0137042
-0.00818012
0.0144693
-0.00781742
0.0152136
-0.0074419
0.0159315
-0.00710439
0.0166286
-0.00679005
0.0173031
-0.00647328
0.0179476
-0.00619081
0.018564
-0.00592629
0.0191543
-0.00565102
0.0197174
-0.00537621
0.0202503
-0.00513614
0.0207534
-0.00491204
0.0212291
-0.00465804
0.0216771
-0.00440189
0.0220975
-0.0041426
0.0224886
-0.0039453
0.0228528
-0.00369545
0.0231903
-0.00343799
0.0235011
-0.00317661
0.0237852
-0.00291085
0.0240428
-0.00269708
0.0242742
-0.00243052
0.0244796
-0.00215902
0.0246589
-0.00188415
0.0248123
-0.00160592
0.0249401
-0.00133945
0.0250427
-0.00103022
0.0251196
-0.000739756
0.0251707
-0.0004868
0.025196
-0.000269775
-8.66635e-05
0.0251954
0.00629939
-0.0152677
-0.00540501
0.00719079
-0.0142869
0.00808012
-0.0132468
0.00896099
-0.0122881
0.00983409
-0.0116021
0.0106984
-0.010994
0.0115469
-0.0103509
0.012387
-0.00993291
0.0132094
-0.00941649
0.0140136
-0.0089844
0.0148032
-0.00860701
0.0155722
-0.00821094
0.0163154
-0.00784757
0.0170379
-0.00751255
0.017738
-0.00717331
0.0184086
-0.00686142
0.0190513
-0.00656899
0.0196678
-0.0062675
0.020257
-0.00596546
0.0208158
-0.00569492
0.0213442
-0.00544049
0.0218445
-0.00515835
0.0223164
-0.00487379
0.0227598
-0.00458593
0.0231726
-0.00435811
0.0235572
-0.00408012
0.0239139
-0.00379465
0.0242425
-0.00350527
0.0245432
-0.00321153
0.0248156
-0.0029695
0.0250605
-0.0026754
0.0252779
-0.00237638
0.0254677
-0.002074
0.0256301
-0.0017683
0.0257655
-0.0014748
0.025874
-0.00113878
0.0259555
-0.000821175
0.0260096
-0.000540938
0.0260364
-0.000296607
-8.62784e-05
0.0260361
0.00638293
-0.0161929
-0.00545774
0.00730455
-0.0152085
0.00822332
-0.0141655
0.00913317
-0.013198
0.0100346
-0.0125034
0.0109265
-0.0118859
0.0118024
-0.0112269
0.012669
-0.0107995
0.0135177
-0.0102652
0.0143483
-0.00981492
0.0151636
-0.00942239
0.0159585
-0.00900576
0.0167278
-0.00861689
0.0174763
-0.00826107
0.0182023
-0.00789934
0.0188992
-0.00755831
0.0195682
-0.00723803
0.0202109
-0.00691017
0.0208261
-0.00658068
0.0214106
-0.00627937
0.0219642
-0.0059941
0.022489
-0.00568316
0.0229846
-0.00536941
0.0234508
-0.00505208
0.0238852
-0.00479258
0.0242904
-0.00448529
0.0246663
-0.00417059
0.025013
-0.0038519
0.0253303
-0.00352884
0.0256178
-0.00325698
0.0258763
-0.0029339
0.0261058
-0.00260591
0.0263064
-0.00227455
0.0264779
-0.00193987
0.0266209
-0.00161776
0.0267355
-0.00125341
0.0268215
-0.000907159
0.0268787
-0.000598135
0.0269071
-0.000324993
-8.59462e-05
0.0269068
0.0064743
-0.0171507
-0.00551642
0.00742803
-0.0161622
0.00837814
-0.0151156
0.00931886
-0.0141387
0.0102504
-0.013435
0.0111718
-0.0128073
0.012077
-0.012132
0.0129719
-0.0116945
0.0138487
-0.011142
0.014707
-0.0106732
0.0155496
-0.010265
0.0163714
-0.00982761
0.0171679
-0.00941334
0.0179433
-0.00903644
0.0186959
-0.008652
0.0194196
-0.00828195
0.0201152
-0.00793372
0.0207843
-0.0075792
0.0214255
-0.00722194
0.0220357
-0.00688952
0.0226145
-0.00657289
0.0231638
-0.00623247
0.0236831
-0.00588873
0.0241721
-0.00554104
0.0246282
-0.00524876
0.025054
-0.00491104
0.0254493
-0.0045659
0.025814
-0.00421664
0.0261481
-0.00386291
0.0264508
-0.00355969
0.0267231
-0.00320621
0.026965
-0.00284777
0.0271764
-0.00248593
0.0273573
-0.00212076
0.0275079
-0.00176843
0.0276287
-0.00137417
0.0277193
-0.000997733
0.0277795
-0.000658367
0.0278094
-0.000354853
-8.55282e-05
0.0278089
0.00657322
-0.0181431
-0.00558082
0.0075609
-0.0171499
0.0085442
-0.016099
0.00951764
-0.0151121
0.0104813
-0.0143987
0.011434
-0.01376
0.0123701
-0.0130682
0.0132951
-0.0126195
0.0142016
-0.0120485
0.0150892
-0.0115609
0.0159605
-0.0111362
0.0168107
-0.0106778
0.0176354
-0.0102381
0.0184386
-0.00983964
0.0192187
-0.00943212
0.0199697
-0.00903299
0.0206926
-0.00865656
0.0213884
-0.008275
0.022056
-0.00788953
0.022692
-0.00752558
0.0232961
-0.00717703
0.0238701
-0.00680639
0.0244132
-0.00643185
0.024925
-0.00605289
0.0254031
-0.00572678
0.0258495
-0.00535751
0.0262643
-0.00498072
0.0266473
-0.00459961
0.0269983
-0.00421388
0.0273164
-0.00387781
0.0276027
-0.00349247
0.027857
-0.00310212
0.0280794
-0.00270828
0.0282697
-0.00231107
0.0284281
-0.00192689
0.0285551
-0.00150112
0.0286503
-0.0010929
0.0287135
-0.000721591
0.0287447
-0.000386093
-8.48682e-05
0.0287441
0.00667955
-0.0191719
-0.0056508
0.00770298
-0.0181734
0.00872132
-0.0171173
0.00972928
-0.0161201
0.0107267
-0.0153961
0.0117125
-0.0147458
0.0126814
-0.0140371
0.0136382
-0.0135763
0.0145761
-0.0129864
0.0154946
-0.0124794
0.016396
-0.0120376
0.0172759
-0.0115576
0.01813
-0.0110922
0.0189622
-0.0106718
0.0197707
-0.0102406
0.0205499
-0.00981222
0.0213006
-0.00940724
0.0220237
-0.00899811
0.0227181
-0.0085839
0.0233804
-0.00818791
0.0240102
-0.00780682
0.024609
-0.00740519
0.0251761
-0.006999
0.0257111
-0.00658784
0.0262112
-0.00622685
0.0266785
-0.00582487
0.027113
-0.00541523
0.0275144
-0.005001
0.0278825
-0.00458193
0.0282162
-0.00421151
0.0285166
-0.00379287
0.0287836
-0.0033691
0.029017
-0.00294173
0.0292168
-0.00251091
0.0293832
-0.00209324
0.0295164
-0.0016343
0.0296161
-0.00119267
0.0296823
-0.000787757
0.0297148
-0.000418607
-8.3801e-05
0.0297138
0.00679325
-0.0202388
-0.00572634
0.00785426
-0.0192344
0.00890943
-0.0181725
0.00995372
-0.0171644
0.0109868
-0.0164292
0.0120075
-0.0157665
0.0130108
-0.0150404
0.0140011
-0.0145666
0.014972
-0.0139573
0.015923
-0.0134303
0.016856
-0.0129706
0.017767
-0.0124686
0.0186519
-0.0119772
0.0195141
-0.011534
0.0203521
-0.0110786
0.0211605
-0.0106206
0.0219398
-0.0101866
0.0226909
-0.00974923
0.0234127
-0.00930564
0.0241018
-0.00887703
0.0247577
-0.00846271
0.0253817
-0.00802924
0.0259732
-0.0075905
0.0265316
-0.00714617
0.0270539
-0.00674924
0.0275425
-0.0063134
0.0279969
-0.00586967
0.0284169
-0.00542102
0.0288023
-0.00496726
0.0291518
-0.00456102
0.0294665
-0.00410759
0.0297463
-0.00364887
0.0299909
-0.00318641
0.0302004
-0.00272039
0.0303747
-0.00226754
0.0305142
-0.00177376
0.0306186
-0.00129703
0.0306876
-0.000856817
0.0307213
-0.00045229
-8.21613e-05
0.0307197
0.00691439
-0.0213457
-0.00580747
0.0080148
-0.0203348
0.00910864
-0.0192663
0.010191
-0.0182468
0.0112616
-0.0174997
0.0123189
-0.0168239
0.0133584
-0.0160799
0.014384
-0.0155921
0.0153895
-0.0149628
0.0163746
-0.0144154
0.0173408
-0.0139368
0.0182843
-0.0134121
0.0192013
-0.0128942
0.0200948
-0.0124275
0.0209634
-0.0119472
0.0218019
-0.0114591
0.0226108
-0.0109954
0.0233907
-0.0105292
0.0241406
-0.0100555
0.0248571
-0.00959356
0.0255396
-0.00914526
0.0261894
-0.00867904
0.0268057
-0.00820678
0.0273878
-0.00772824
0.0279329
-0.00729431
0.0284429
-0.00682341
0.0289175
-0.00634433
0.0293565
-0.00585994
0.0297593
-0.00537011
0.0301249
-0.00492656
0.0304541
-0.00443684
0.0307469
-0.00394163
0.0310029
-0.00344249
0.0312222
-0.00293963
0.0314045
-0.00244989
0.0315503
-0.00191955
0.0316593
-0.001406
0.0317312
-0.000928726
0.031766
-0.000487047
-7.97934e-05
0.0317636
0.00704309
-0.0224945
-0.0058943
0.00818474
-0.0214764
0.00931909
-0.0204007
0.0104415
-0.0193691
0.0115512
-0.0186095
0.012647
-0.0179197
0.0137245
-0.0171573
0.014787
-0.0166546
0.0158289
-0.0160048
0.0168495
-0.015436
0.0178505
-0.0149378
0.018828
-0.0143896
0.0197785
-0.0138447
0.0207047
-0.0133537
0.0216051
-0.0128477
0.0224749
-0.0123289
0.0233143
-0.0118348
0.024124
-0.0113388
0.0249027
-0.0108342
0.0256474
-0.0103382
0.0263572
-0.00985511
0.0270334
-0.00935517
0.0276749
-0.00884836
0.0282812
-0.00833454
0.0288494
-0.00786249
0.0293813
-0.00735529
0.0298765
-0.00683957
0.0303347
-0.00631808
0.0307553
-0.00579076
0.0311372
-0.00530841
0.0314812
-0.00478086
0.0317872
-0.00424758
0.0320548
-0.00371013
0.0322839
-0.00316877
0.0324745
-0.00264041
0.0326266
-0.00207174
0.0327402
-0.00151959
0.032815
-0.00100346
0.0328507
-0.000522795
-7.65612e-05
0.0328475
0.00717952
-0.0236871
-0.00598696
0.00836431
-0.0226612
0.00954105
-0.0215774
0.0107052
-0.0205333
0.011856
-0.0197603
0.0129921
-0.0190558
0.0141093
-0.0182745
0.0152105
-0.0177558
0.0162904
-0.0170847
0.0173484
-0.016494
0.0183857
-0.0159751
0.0193988
-0.0154027
0.0203842
-0.0148302
0.0213444
-0.0143138
0.0222779
-0.0137812
0.0231801
-0.013231
0.0240512
-0.0127059
0.0248916
-0.0121792
0.0257001
-0.0116427
0.0264738
-0.0111119
0.0272117
-0.010593
0.0279148
-0.0100583
0.0285823
-0.00951585
0.0292133
-0.00896559
0.0298051
-0.00845428
0.0303593
-0.0079095
0.0308756
-0.00735579
0.0313533
-0.00679582
0.0317921
-0.00622955
0.0321905
-0.00570688
0.0325496
-0.00513992
0.032869
-0.00456695
0.0331484
-0.00398953
0.0333876
-0.00340796
0.0335864
-0.00283921
0.0337451
-0.00223041
0.0338633
-0.00163785
0.0339409
-0.001081
0.0339776
-0.000559482
-7.23591e-05
0.0339734
0.00732389
-0.0249254
-0.00608561
0.00855376
-0.0238911
0.00977481
-0.0227985
0.0109827
-0.0217412
0.0121764
-0.020954
0.0133547
-0.0202341
0.0145133
-0.0194331
0.015655
-0.0188976
0.0167748
-0.0182045
0.0178717
-0.017591
0.018947
-0.0170504
0.0199972
-0.0164529
0.0210191
-0.015852
0.0220147
-0.0153095
0.0229827
-0.0147492
0.0239186
-0.0141669
0.0248224
-0.0136098
0.0256946
-0.0130515
0.026534
-0.0124821
0.0273375
-0.0119154
0.0281042
-0.0113598
0.0288351
-0.0107892
0.0295292
-0.0102099
0.0301856
-0.00962203
0.0308016
-0.00907025
0.0313787
-0.00848656
0.0319163
-0.00789347
0.0324141
-0.00729356
0.0328714
-0.00668686
0.0332868
-0.00612231
0.0336612
-0.00551434
0.0339943
-0.00490002
0.0342857
-0.00428093
0.0345351
-0.0036574
0.0347424
-0.00304645
0.0349077
-0.00239568
0.0350307
-0.00176084
0.0351111
-0.00116139
0.0351487
-0.000597084
-6.71228e-05
0.0351434
0.00747646
-0.0262114
-0.00619045
0.00875338
-0.025168
0.0100207
-0.0240658
0.0112742
-0.0229947
0.0125129
-0.0221926
0.0137352
-0.0214564
0.0149372
-0.0206352
0.0161212
-0.0200816
0.0172825
-0.0193658
0.0184202
-0.0187286
0.0195352
-0.0181653
0.0206241
-0.0175419
0.0216839
-0.0169118
0.0227164
-0.016342
0.0237203
-0.015753
0.0246912
-0.0151378
0.0256291
-0.0145477
0.0265342
-0.0139566
0.0274054
-0.0133533
0.0282398
-0.0127497
0.0290364
-0.0121563
0.0297958
-0.0115487
0.0305173
-0.0109313
0.0311998
-0.0103045
0.0318406
-0.00971104
0.032441
-0.00908704
0.0330007
-0.00845312
0.0335189
-0.00781178
0.0339952
-0.0071631
0.0344279
-0.00655508
0.0348181
-0.00590445
0.0351651
-0.00524708
0.0354688
-0.00458458
0.0357287
-0.00391731
0.0359445
-0.00326231
0.0361165
-0.0025677
0.0362444
-0.00188866
0.0363277
-0.00124467
0.0363662
-0.000635624
-6.08367e-05
0.0363599
0.00763749
-0.0275472
-0.00630168
0.00896352
-0.026494
0.0102792
-0.0253815
0.0115804
-0.0242959
0.0128658
-0.0234781
0.0141341
-0.0227247
0.0153814
-0.0218824
0.0166097
-0.0213099
0.0178144
-0.0205705
0.0189946
-0.0199088
0.0201509
-0.0193217
0.0212803
-0.0186713
0.0223797
-0.0180112
0.0234507
-0.0174129
0.0244918
-0.0167942
0.0254991
-0.0161451
0.0264724
-0.0155209
0.0274117
-0.014896
0.0283159
-0.0142575
0.0291822
-0.013616
0.0300095
-0.0129837
0.0307985
-0.0123376
0.0315481
-0.011681
0.0322574
-0.0110139
0.0329238
-0.0103773
0.0335483
-0.00971158
0.0341305
-0.00903533
0.0346697
-0.00835101
0.0351654
-0.00765876
0.0356159
-0.00700564
0.0360221
-0.00631063
0.0363835
-0.00560847
0.0366997
-0.00490076
0.0369703
-0.00418793
0.037195
-0.00348701
0.037374
-0.00274662
0.0375067
-0.00202146
0.037593
-0.00133096
0.0376326
-0.000675165
-5.35417e-05
0.0376253
0.00780725
-0.0289349
-0.00641951
0.0091845
-0.0278713
0.0105506
-0.0267476
0.0119015
-0.0256468
0.0132359
-0.0248125
0.0145522
-0.024041
0.0158467
-0.023177
0.0171212
-0.0225843
0.0183712
-0.0218205
0.0195957
-0.0211333
0.0207953
-0.0205212
0.0219668
-0.0198429
0.0231075
-0.0191518
0.0242185
-0.0185239
0.0252985
-0.0178742
0.0263436
-0.0171902
0.0273536
-0.0165309
0.0283284
-0.0158708
0.0292669
-0.0151959
0.0301662
-0.0145153
0.0310253
-0.0138428
0.0318448
-0.013157
0.0326234
-0.0124596
0.0333605
-0.0117509
0.034053
-0.0110699
0.0347023
-0.0103609
0.0353077
-0.00964073
0.0358685
-0.00891182
0.0363841
-0.00817434
0.0368529
-0.00747444
0.0372756
-0.00673331
0.0376517
-0.00598457
0.0379808
-0.00522982
0.0382624
-0.00446955
0.0384962
-0.00372078
0.0386822
-0.00293267
0.0388201
-0.0021594
0.0389096
-0.00142038
0.0389502
-0.000715824
-4.53378e-05
0.038942
0.00798603
-0.0303768
-0.00654416
0.0094167
-0.029302
0.0108354
-0.0281663
0.0122382
-0.0270496
0.0136236
-0.0261979
0.0149899
-0.0254073
0.0163338
-0.0245209
0.0176564
-0.023907
0.0189537
-0.0231177
0.0202245
-0.0224041
0.0214691
-0.0217659
0.0226847
-0.0210584
0.0238682
-0.0203354
0.025021
-0.0196767
0.0261415
-0.0189947
0.027226
-0.0182747
0.0282741
-0.017579
0.0292858
-0.0168825
0.0302597
-0.0161699
0.0311933
-0.0154489
0.0320854
-0.0147349
0.0329364
-0.014008
0.0337451
-0.0132684
0.0345107
-0.0125164
0.0352303
-0.0117896
0.0359051
-0.0110357
0.0365344
-0.01027
0.0371174
-0.00949483
0.0376535
-0.00871042
0.0381411
-0.00796201
0.0385807
-0.00717296
0.0389719
-0.00637578
0.0393142
-0.00557212
0.0396072
-0.00476249
0.0398503
-0.00396392
0.0400438
-0.00312609
0.040187
-0.00230269
0.0402798
-0.00151312
0.0403217
-0.000757762
-3.63844e-05
0.0403128
0.00817415
-0.0318751
-0.00667586
0.0096605
-0.0307883
0.011134
-0.0296398
0.0125909
-0.0285064
0.0140295
-0.0276365
0.0154481
-0.026826
0.0168434
-0.0259161
0.0182163
-0.0252799
0.0195628
-0.0244643
0.0208819
-0.0237231
0.0221735
-0.0230575
0.0234349
-0.0223198
0.0246632
-0.0215637
0.0258594
-0.0208729
0.0270221
-0.0201574
0.0281475
-0.0194001
0.0292353
-0.0186668
0.0302853
-0.0179325
0.0312962
-0.0171808
0.0322653
-0.016418
0.0331915
-0.0156612
0.0340751
-0.0148915
0.0349149
-0.0141082
0.03571
-0.0133115
0.0364577
-0.0125373
0.0371588
-0.0117368
0.0378127
-0.0109239
0.0384186
-0.0101007
0.0389758
-0.00926762
0.0394827
-0.00846891
0.0399398
-0.00763007
0.0403466
-0.00678257
0.0407026
-0.00592806
0.0410072
-0.00506712
0.04126
-0.00421675
0.0414611
-0.00332716
0.04161
-0.00245158
0.0417063
-0.0016094
0.0417497
-0.00080119
-2.68973e-05
0.0417402
0.00837191
-0.0334322
-0.00681483
0.00991628
-0.0323327
0.011447
-0.0311705
0.0129603
-0.0300197
0.0144543
-0.0291305
0.0159274
-0.0282991
0.0173763
-0.027365
0.0188016
-0.0267052
0.0201996
-0.0258623
0.0215689
-0.0250924
0.0229095
-0.0243981
0.0242187
-0.023629
0.0254937
-0.0228387
0.0267352
-0.0221144
0.0279417
-0.0213639
0.0291098
-0.0205682
0.0302389
-0.0197959
0.0313287
-0.0190223
0.0323778
-0.0182299
0.0333838
-0.017424
0.0343455
-0.0166228
0.0352629
-0.0158089
0.0361349
-0.0149802
0.0369605
-0.0141371
0.0377371
-0.0133139
0.0384655
-0.0124652
0.0391448
-0.0116033
0.0397744
-0.0107303
0.0403533
-0.00984659
0.0408802
-0.00899575
0.0413553
-0.00810519
0.0417782
-0.00720541
0.0421482
-0.00629808
0.0424649
-0.00538382
0.0427278
-0.00447961
0.0429368
-0.0035362
0.0430916
-0.00260636
0.0431917
-0.00170949
0.0432368
-0.00084636
-1.71369e-05
0.0432271
0.00857963
-0.0350505
-0.0069613
0.0101845
-0.0339375
0.0117748
-0.0327608
0.0133468
-0.0315917
0.0148987
-0.0306824
0.0164286
-0.029829
0.0179333
-0.0288697
0.0194133
-0.0281851
0.0208648
-0.0273138
0.0222865
-0.0265142
0.0236783
-0.0257899
0.0250373
-0.0249881
0.0263608
-0.0241623
0.0276495
-0.023403
0.0289018
-0.0226162
0.0301142
-0.0217807
0.0312862
-0.0209679
0.0324174
-0.0201535
0.0335065
-0.019319
0.0345508
-0.0184683
0.0355492
-0.0176212
0.0365016
-0.0167614
0.037407
-0.0158856
0.0382643
-0.0149944
0.0390709
-0.0141205
0.0398274
-0.0132217
0.040533
-0.0123089
0.041187
-0.0113842
0.0417885
-0.0104481
0.0423359
-0.00954318
0.0428297
-0.00859893
0.0432691
-0.00764486
0.0436537
-0.00668267
0.0439829
-0.00571302
0.0442562
-0.00475289
0.0444736
-0.00375355
0.0446345
-0.00276735
0.0447387