/*--------------------------------*- C++ -*----------------------------------*\
| =========                 |                                                 |
| \\      /  F ield         | OpenFOAM: The Open Source CFD Toolbox           |
|  \\    /   O peration     | Version:  3.0.1                                 |
|   \\  /    A nd           | Web:      www.OpenFOAM.org                      |
|    \\/     M anipulation  |                                                 |
\*---------------------------------------------------------------------------*/
FoamFile
{
    version     2.0;
    format      ascii;
    class       volVectorField;
    location    "250";
    object      U;
}
// * * * * * * * * * * * * * * * * * * * * * * * * * * * * * * * * * * * * * //

dimensions      [0 1 -1 0 0 0 0];

internalField   nonuniform List<vector> 
58000
(
(0.322917 1.05087 -8.03104e-23)
(0.45347 1.1877 -9.58598e-21)
(0.593404 1.24154 1.48987e-20)
(0.718135 1.22006 -2.47924e-20)
(0.818242 1.15281 -4.91185e-20)
(0.897694 1.0644 0)
(0.961064 0.973333 -2.92938e-20)
(1.00993 0.883222 -8.21709e-22)
(1.05013 0.798964 3.30716e-20)
(1.08273 0.725804 0)
(1.10923 0.661373 3.59117e-20)
(1.13182 0.605136 3.36576e-20)
(1.15162 0.558985 -1.08988e-19)
(1.16604 0.520104 3.83097e-20)
(1.17662 0.486227 3.38779e-20)
(1.18474 0.457194 6.8948e-20)
(1.19042 0.432394 -1.01076e-19)
(1.19436 0.41039 0)
(1.19706 0.389994 6.45928e-20)
(1.19881 0.370884 -9.61422e-20)
(1.19969 0.353364 6.86424e-22)
(1.19963 0.337037 3.1464e-20)
(1.19913 0.321385 1.48874e-20)
(1.19776 0.305878 0)
(1.19618 0.291094 2.82279e-20)
(1.19373 0.2772 -1.39876e-20)
(1.19094 0.263829 0)
(1.18789 0.250796 3.19689e-22)
(1.18419 0.237836 0)
(1.18045 0.225445 -1.30168e-20)
(1.17615 0.213753 6.3638e-20)
(1.1717 0.202429 -6.32012e-20)
(1.16712 0.191339 -3.72438e-20)
(1.16221 0.180345 9.76123e-20)
(1.15707 0.169564 -2.42418e-20)
(1.14964 0.158911 -1.19575e-20)
(1.13881 0.148755 1.77492e-20)
(1.12768 0.139863 -1.13987e-20)
(1.11794 0.132299 1.69963e-20)
(1.11696 0.127332 0)
(0.536472 0.682099 -8.38628e-21)
(0.635797 0.759298 0)
(0.74089 0.819418 1.08129e-23)
(0.844534 0.86982 -1.10914e-23)
(0.943329 0.903606 2.85051e-20)
(1.03461 0.91554 2.28905e-20)
(1.11273 0.908355 -4.51127e-20)
(1.17893 0.886016 1.31673e-20)
(1.233 0.85159 6.46287e-20)
(1.27379 0.811004 -3.53593e-20)
(1.30433 0.765995 0)
(1.32561 0.718644 -6.61338e-20)
(1.33826 0.673642 4.37225e-20)
(1.34585 0.631758 2.39788e-20)
(1.34985 0.591421 -2.40506e-20)
(1.35118 0.554423 0)
(1.35075 0.521551 2.38507e-20)
(1.34918 0.491283 0)
(1.3468 0.462707 9.05658e-20)
(1.34388 0.436275 -1.35688e-19)
(1.34071 0.412483 0)
(1.33728 0.390404 1.10237e-19)
(1.3336 0.369258 -8.74456e-20)
(1.32958 0.348805 0)
(1.32548 0.329867 -3.16495e-20)
(1.32129 0.312417 0)
(1.31688 0.295598 0)
(1.31225 0.279237 3.03858e-20)
(1.3073 0.263238 0)
(1.3023 0.248219 -2.95556e-20)
(1.29726 0.234179 3.90975e-20)
(1.29203 0.220512 -3.81905e-20)
(1.28659 0.207095 2.84122e-20)
(1.28087 0.193872 -1.88402e-20)
(1.27491 0.181065 0)
(1.26864 0.16887 -2.75834e-20)
(1.26226 0.157813 1.8178e-20)
(1.25599 0.148196 0)
(1.25032 0.139498 -4.48583e-21)
(1.24587 0.132042 8.79003e-21)
(0.57214 0.618352 3.06789e-21)
(0.617218 0.679905 -1.23625e-21)
(0.674478 0.733727 -1.5154e-21)
(0.741126 0.776531 5.72238e-22)
(0.812691 0.806999 -5.99512e-22)
(0.887033 0.825822 -1.18986e-20)
(0.958319 0.83259 1.58805e-20)
(1.02668 0.828101 0)
(1.08929 0.813793 -2.2935e-20)
(1.14284 0.79144 2.10677e-20)
(1.1894 0.762424 2.68531e-20)
(1.22845 0.728809 -1.53033e-21)
(1.25868 0.693669 0)
(1.28225 0.657795 6.07376e-20)
(1.30081 0.621457 -3.1868e-20)
(1.31431 0.586848 0)
(1.32362 0.554845 0)
(1.33007 0.524606 0)
(1.33438 0.495781 -1.61211e-20)
(1.33688 0.468956 1.72235e-20)
(1.33794 0.444458 0)
(1.33795 0.421504 1.6064e-20)
(1.33719 0.39955 0)
(1.33575 0.378483 0)
(1.33375 0.358941 3.23465e-20)
(1.33129 0.340729 -6.38682e-20)
(1.32842 0.323147 6.38965e-20)
(1.32519 0.306138 1.53303e-20)
(1.3216 0.289648 -3.13399e-20)
(1.31778 0.274146 -2.29438e-20)
(1.31373 0.259512 0)
(1.30942 0.245259 1.47746e-20)
(1.30485 0.231363 0)
(1.30001 0.217815 2.84875e-22)
(1.29494 0.204825 -2.17761e-20)
(1.28961 0.192445 1.46408e-20)
(1.28397 0.180654 0)
(1.27827 0.169544 0)
(1.27282 0.158896 -3.50922e-21)
(1.26783 0.148293 -3.70377e-21)
(0.646248 0.557416 3.85391e-21)
(0.676707 0.602079 1.03994e-21)
(0.712683 0.644738 -8.51227e-22)
(0.755289 0.682724 7.76943e-24)
(0.803741 0.71331 1.42342e-21)
(0.857233 0.735817 0)
(0.912095 0.749027 -5.81347e-21)
(0.967397 0.753636 0)
(1.02142 0.750087 -1.28648e-20)
(1.07086 0.73928 -3.02834e-21)
(1.11649 0.722209 -1.71687e-20)
(1.15748 0.700011 1.63144e-20)
(1.1918 0.674761 -2.13567e-20)
(1.22052 0.647303 -4.39402e-20)
(1.24489 0.617967 -2.34867e-20)
(1.26427 0.588554 2.40347e-20)
(1.27913 0.560121 -2.28809e-20)
(1.29072 0.532349 0)
(1.29976 0.505176 -1.09135e-20)
(1.30644 0.479322 -5.01258e-20)
(1.31106 0.455274 5.03137e-20)
(1.3142 0.432474 -1.30277e-20)
(1.3162 0.410487 0)
(1.31722 0.389258 0)
(1.31733 0.369426 3.71029e-20)
(1.31672 0.350859 -4.99708e-20)
(1.31551 0.332914 4.94083e-20)
(1.31377 0.315522 -3.9807e-22)
(1.31154 0.298635 -9.78512e-20)
(1.30892 0.282702 6.12976e-20)
(1.30597 0.267641 -2.39496e-20)
(1.30267 0.252991 -1.20214e-20)
(1.29903 0.238721 4.74655e-20)
(1.29506 0.224815 -1.76176e-20)
(1.29084 0.211477 5.97875e-21)
(1.28641 0.198763 -5.67635e-21)
(1.28177 0.186525 -5.63632e-21)
(1.27697 0.174745 0)
(1.27217 0.163373 2.80516e-21)
(1.26752 0.152379 -2.9288e-21)
(0.689454 0.519659 -1.7945e-21)
(0.711144 0.554522 -2.97268e-21)
(0.736527 0.589115 4.46802e-22)
(0.766733 0.621838 7.54511e-22)
(0.802038 0.650491 -7.95693e-22)
(0.842483 0.674121 0)
(0.8858 0.69082 2.37139e-21)
(0.931225 0.700702 2.2881e-21)
(0.977386 0.703755 0)
(1.02146 0.700056 8.02671e-21)
(1.0638 0.690438 9.65108e-21)
(1.10346 0.67569 0)
(1.13823 0.657137 -1.49661e-20)
(1.16869 0.635588 1.61297e-20)
(1.19572 0.611529 0)
(1.21835 0.586432 -3.24545e-20)
(1.23663 0.561289 8.92587e-20)
(1.25169 0.536061 6.49586e-22)
(1.26412 0.510857 -1.75971e-20)
(1.27394 0.48643 0)
(1.28136 0.46332 0)
(1.287 0.44114 0)
(1.29128 0.419579 1.90231e-20)
(1.29436 0.39865 0)
(1.29626 0.378978 0)
(1.2972 0.360448 0)
(1.29741 0.342489 2.9683e-20)
(1.29696 0.325055 -3.94579e-20)
(1.29591 0.308118 4.84976e-20)
(1.29433 0.292104 -2.96216e-20)
(1.2923 0.276923 0)
(1.28985 0.262146 0)
(1.28701 0.247754 -9.71251e-21)
(1.2838 0.23374 2.87603e-20)
(1.28029 0.220294 -1.90686e-22)
(1.27654 0.20745 -2.34499e-20)
(1.27256 0.195014 1.41689e-20)
(1.26836 0.182931 0)
(1.26399 0.171198 0)
(1.25949 0.159851 -4.67643e-21)
(0.7263 0.490495 0)
(0.743038 0.518284 2.06407e-21)
(0.761956 0.546379 2.7835e-21)
(0.784214 0.573901 -1.42429e-21)
(0.810517 0.599319 -6.10015e-22)
(0.841371 0.621904 9.59411e-22)
(0.875569 0.639678 1.26154e-21)
(0.912584 0.652445 5.13598e-21)
(0.951504 0.659765 1.10477e-21)
(0.989984 0.66117 -1.17785e-20)
(1.02811 0.657265 -3.55306e-22)
(1.06499 0.648476 -2.54311e-20)
(1.09847 0.635558 3.8128e-20)
(1.12878 0.619247 -2.0385e-20)
(1.15653 0.600043 2.38057e-20)
(1.18059 0.579093 -2.27638e-20)
(1.20076 0.55731 0)
(1.21796 0.534836 0)
(1.23264 0.511873 0)
(1.24469 0.489158 0)
(1.25421 0.467276 -1.57281e-20)
(1.26182 0.445992 -1.49091e-20)
(1.26792 0.425102 4.58351e-20)
(1.27267 0.404665 -3.11338e-20)
(1.27606 0.385294 0)
(1.27833 0.366928 1.52848e-20)
(1.27973 0.349066 -2.34015e-20)
(1.28038 0.331677 3.17389e-20)
(1.28032 0.314747 -5.49885e-20)
(1.27962 0.298684 1.5868e-20)
(1.27838 0.283414 -3.1292e-20)
(1.27665 0.268538 3.14564e-20)
(1.27447 0.254041 -3.82684e-22)
(1.27188 0.239913 7.96603e-21)
(1.26894 0.226332 0)
(1.26572 0.21333 0)
(1.26223 0.200709 -7.6248e-21)
(1.25847 0.18841 7.66355e-21)
(1.25447 0.176456 0)
(1.25025 0.164922 -3.67722e-21)
(0.754894 0.467636 9.09052e-22)
(0.768641 0.490452 -1.15336e-21)
(0.78378 0.513684 -4.04592e-22)
(0.801222 0.536828 5.70708e-22)
(0.821702 0.558862 4.55419e-22)
(0.845876 0.579362 -9.15364e-22)
(0.873194 0.596619 -1.51382e-21)
(0.90341 0.610366 -7.52217e-22)
(0.936027 0.619997 0)
(0.969213 0.62471 0)
(1.00297 0.624895 4.37473e-21)
(1.0365 0.620686 0)
(1.06788 0.612361 0)
(1.09705 0.600525 -1.6011e-20)
(1.12446 0.585649 8.39297e-21)
(1.14891 0.568568 -1.7916e-20)
(1.17 0.550072 1.00181e-20)
(1.18847 0.530418 0)
(1.20464 0.50986 1.05223e-20)
(1.21829 0.489086 1.21901e-20)
(1.22942 0.468688 -2.44263e-20)
(1.23858 0.448561 3.68808e-20)
(1.24617 0.428591 2.16313e-22)
(1.25232 0.408877 -2.49015e-20)
(1.25699 0.390021 1.31054e-20)
(1.2604 0.372008 -2.54859e-20)
(1.26287 0.354409 -2.56648e-20)
(1.26448 0.337213 -1.25424e-20)
(1.26531 0.320423 1.32826e-20)
(1.26539 0.304434 -3.17734e-20)
(1.26485 0.289184 5.16021e-20)
(1.26376 0.274305 -1.70908e-22)
(1.26218 0.259787 -5.16185e-20)
(1.26013 0.245624 6.62687e-21)
(1.25768 0.231985 0)
(1.2549 0.2189 1.8939e-20)
(1.25181 0.206176 -6.56603e-21)
(1.24841 0.193755 0)
(1.24471 0.181673 3.129e-21)
(1.24072 0.170011 3.41848e-21)
(0.778394 0.448891 -9.36042e-22)
(0.790099 0.468033 3.46866e-22)
(0.802741 0.487573 2.00477e-22)
(0.817035 0.5072 6.28298e-24)
(0.833626 0.526206 7.02313e-23)
(0.853146 0.544385 4.77393e-22)
(0.875389 0.560357 -5.82855e-22)
(0.900295 0.573906 1.55037e-21)
(0.927662 0.584432 -1.62117e-21)
(0.956127 0.591011 0)
(0.985691 0.59388 2.41176e-21)
(1.01573 0.592973 -8.95599e-21)
(1.04456 0.588214 4.67758e-21)
(1.07199 0.58006 -1.71886e-20)
(1.09833 0.56891 2.03714e-20)
(1.1224 0.555314 -2.06163e-20)
(1.14369 0.539919 2.2982e-20)
(1.16275 0.523038 0)
(1.1798 0.504939 -9.11006e-21)
(1.19452 0.486235 9.51419e-21)
(1.20681 0.467498 -9.84324e-21)
(1.21718 0.448724 1.95033e-20)
(1.22597 0.429873 -3.97312e-20)
(1.23329 0.411078 2.0123e-20)
(1.23905 0.392916 1.06961e-20)
(1.24347 0.375417 1.07745e-20)
(1.24687 0.358228 -2.1064e-20)
(1.24936 0.341357 4.25077e-20)
(1.25099 0.324822 0)
(1.2518 0.309005 3.243e-20)
(1.2519 0.29386 -3.18754e-20)
(1.25141 0.279056 2.13918e-20)
(1.25037 0.264585 -1.60243e-20)
(1.24882 0.250446 5.50156e-21)
(1.24682 0.236801 5.22306e-21)
(1.24444 0.223681 -2.65723e-22)
(1.24171 0.210906 -5.46338e-21)
(1.23862 0.198421 0)
(1.2352 0.186268 -2.62726e-21)
(1.23144 0.174531 2.76562e-21)
(0.797922 0.433071 0)
(0.808177 0.449426 0)
(0.819097 0.466125 -2.36785e-21)
(0.831243 0.48296 9.84084e-22)
(0.845159 0.499415 -1.54172e-22)
(0.861399 0.515415 -2.08592e-22)
(0.87992 0.529865 1.2433e-21)
(0.900762 0.542623 0)
(0.923908 0.553172 0)
(0.948361 0.560601 -4.25112e-21)
(0.974155 0.565058 -6.44769e-21)
(1.00084 0.566368 -7.42067e-23)
(1.02698 0.564226 1.18799e-20)
(1.05236 0.558951 -2.38191e-21)
(1.07719 0.550862 -7.87699e-21)
(1.10036 0.540268 0)
(1.12129 0.52767 0)
(1.1404 0.513387 0)
(1.15781 0.497676 0)
(1.17314 0.481061 -1.46885e-20)
(1.18621 0.464068 1.48839e-20)
(1.19745 0.446771 2.33337e-20)
(1.20717 0.429184 -3.23176e-20)
(1.21543 0.411461 8.43924e-21)
(1.22211 0.394146 0)
(1.2274 0.37731 -1.72318e-20)
(1.23163 0.36067 1.73822e-20)
(1.23489 0.344251 -9.11366e-21)
(1.23725 0.328089 0)
(1.23872 0.312548 -9.1857e-21)
(1.23942 0.297605 9.27887e-21)
(1.23948 0.282961 3.59878e-20)
(1.23895 0.268615 -3.60916e-20)
(1.23787 0.254571 1.80945e-20)
(1.23629 0.240987 -4.63538e-21)
(1.23429 0.227895 -2.24019e-20)
(1.23189 0.215128 9.04053e-21)
(1.2291 0.202637 4.47142e-21)
(1.22594 0.190466 -6.72018e-21)
(1.22241 0.178698 2.33633e-21)
(0.814444 0.419404 0)
(0.823607 0.433589 0)
(0.833269 0.448057 1.39135e-21)
(0.843876 0.462662 -1.07187e-21)
(0.855881 0.47701 2.32236e-23)
(0.869754 0.491096 2.13879e-22)
(0.885521 0.504046 -7.82545e-22)
(0.903268 0.515784 -7.63331e-22)
(0.923075 0.525888 2.56995e-21)
(0.944215 0.533526 -3.15419e-21)
(0.966757 0.538802 -1.34398e-22)
(0.990388 0.541495 9.16266e-24)
(1.01394 0.541176 4.42295e-21)
(1.03718 0.538055 7.08531e-21)
(1.06026 0.532376 8.92129e-21)
(1.0822 0.524266 -8.85241e-23)
(1.10239 0.514084 -8.88853e-21)
(1.12113 0.502131 0)
(1.13849 0.488634 -1.04348e-20)
(1.15404 0.474026 1.11399e-20)
(1.16756 0.458773 -1.2463e-20)
(1.17937 0.442996 6.58248e-21)
(1.18974 0.426747 3.01751e-22)
(1.19872 0.410191 7.35605e-21)
(1.20613 0.393831 -1.39469e-20)
(1.21214 0.377772 0)
(1.21708 0.361792 2.16418e-20)
(1.22102 0.345933 -3.66959e-20)
(1.22403 0.330246 2.97951e-20)
(1.2261 0.315077 -2.28415e-20)
(1.22735 0.300424 -1.51162e-20)
(1.22793 0.28602 1.52333e-20)
(1.22788 0.271874 1.52548e-20)
(1.22723 0.257995 -1.53412e-20)
(1.22605 0.244534 7.6437e-21)
(1.2244 0.231529 1.85041e-22)
(1.22231 0.218826 0)
(1.21981 0.206382 0)
(1.21691 0.194243 3.72315e-21)
(1.2136 0.182486 0)
(0.828609 0.407375 8.05254e-22)
(0.836916 0.41983 1.5831e-22)
(0.845618 0.432514 -1.61567e-22)
(0.855073 0.445319 3.8075e-24)
(0.865662 0.457931 0)
(0.877775 0.47038 1.09131e-22)
(0.891468 0.48196 2.99911e-22)
(0.906841 0.49264 -3.05458e-22)
(0.924018 0.502085 1.47727e-21)
(0.942461 0.509561 -1.8016e-21)
(0.962264 0.515154 3.04255e-21)
(0.98322 0.518638 0)
(1.00438 0.51953 -4.11379e-21)
(1.02554 0.517962 1.36811e-21)
(1.04682 0.51412 1.26276e-20)
(1.06736 0.507996 -1.36383e-20)
(1.08657 0.499834 2.28821e-20)
(1.10467 0.489899 -7.91965e-21)
(1.12166 0.478384 9.36492e-21)
(1.13712 0.465628 -1.00014e-20)
(1.15078 0.452037 0)
(1.16289 0.437754 1.1028e-20)
(1.17369 0.422854 1.05753e-20)
(1.18316 0.407505 0)
(1.19113 0.392163 0)
(1.19771 0.376957 1.15837e-20)
(1.20323 0.361719 5.9528e-21)
(1.20774 0.346503 -5.96149e-21)
(1.21131 0.331373 1.22289e-20)
(1.21392 0.316657 1.90032e-20)
(1.21566 0.30237 -1.2851e-20)
(1.21671 0.288281 0)
(1.21709 0.274403 -1.30185e-20)
(1.21686 0.260752 1.30964e-20)
(1.21605 0.247476 6.54112e-21)
(1.21473 0.234616 -4.07706e-23)
(1.21295 0.222032 -6.59428e-21)
(1.21072 0.209685 0)
(1.20807 0.197624 -9.75754e-21)
(1.20497 0.185921 0)
(0.840891 0.396626 -9.92127e-22)
(0.848506 0.407675 1.0358e-21)
(0.856447 0.418908 7.85653e-22)
(0.865007 0.430242 -6.80721e-22)
(0.874507 0.441416 -4.17297e-22)
(0.885275 0.452478 -1.0047e-22)
(0.897371 0.462846 2.21808e-22)
(0.910897 0.472521 -5.95407e-22)
(0.92599 0.481236 -1.8397e-22)
(0.942245 0.488356 1.53032e-21)
(0.959767 0.493959 -4.50512e-21)
(0.978426 0.497833 -5.5405e-22)
(0.997458 0.49949 1.06246e-20)
(1.01668 0.499007 -7.66364e-21)
(1.03622 0.496527 -5.10639e-21)
(1.0553 0.491955 6.24735e-21)
(1.07341 0.485439 -1.22986e-20)
(1.09067 0.477207 -6.3681e-21)
(1.10709 0.467414 1.49623e-20)
(1.12223 0.45632 -1.5212e-20)
(1.13579 0.444263 0)
(1.14798 0.431398 0)
(1.15898 0.41781 -7.53505e-22)
(1.16876 0.403659 0)
(1.17711 0.389355 0)
(1.18412 0.375042 -1.05079e-20)
(1.19009 0.360596 -1.00291e-20)
(1.19507 0.346081 -1.02527e-20)
(1.19911 0.331568 1.00748e-20)
(1.20217 0.317368 -5.92992e-21)
(1.20435 0.303511 -3.24375e-22)
(1.20581 0.289798 1.10975e-20)
(1.20659 0.276248 0)
(1.20673 0.262883 1.66832e-20)
(1.20626 0.249846 -1.13113e-20)
(1.20526 0.237183 -1.11516e-20)
(1.20376 0.224766 5.68452e-21)
(1.2018 0.212565 -2.82393e-21)
(1.19938 0.200626 8.66211e-21)
(1.19649 0.189017 0)
(0.851646 0.386899 6.34891e-22)
(0.858684 0.396787 -4.19138e-22)
(0.866002 0.406822 -1.87158e-22)
(0.873844 0.416936 5.77708e-22)
(0.882481 0.42691 4.49751e-22)
(0.892189 0.436796 1.45421e-23)
(0.903027 0.446109 -2.20326e-22)
(0.91509 0.454867 1.0168e-21)
(0.928515 0.462858 -1.78977e-21)
(0.942986 0.469533 -1.40813e-21)
(0.958614 0.474968 1.88331e-21)
(0.975319 0.478974 -2.48213e-21)
(0.992485 0.481082 5.19731e-21)
(1.00996 0.481336 3.53707e-21)
(1.02786 0.479847 7.77657e-21)
(1.04553 0.476463 4.90488e-22)
(1.06248 0.471265 -5.2764e-21)
(1.07882 0.464443 2.24891e-20)
(1.09452 0.456117 -2.97465e-20)
(1.10917 0.446479 2.59644e-20)
(1.12247 0.435806 -6.88302e-21)
(1.13456 0.424251 0)
(1.14558 0.411901 -6.29659e-22)
(1.1555 0.398906 0)
(1.16407 0.385628 0)
(1.17138 0.372215 0)
(1.17769 0.358583 6.15835e-22)
(1.18303 0.344801 2.75551e-20)
(1.18744 0.330945 -2.78111e-20)
(1.19088 0.317306 -2.90712e-22)
(1.19343 0.303927 -1.92094e-20)
(1.19526 0.290639 9.57222e-21)
(1.19638 0.277466 -9.388e-21)
(1.19685 0.264435 -1.47182e-20)
(1.1967 0.251685 -4.75263e-21)
(1.19598 0.239264 9.81527e-21)
(1.19475 0.22706 0)
(1.19303 0.215047 -4.79129e-21)
(1.19084 0.20327 -6.01078e-21)
(1.18815 0.191794 1.26264e-21)
(0.861142 0.378006 5.57886e-22)
(0.867689 0.386922 0)
(0.874484 0.395952 -1.42167e-21)
(0.881733 0.405043 5.10792e-22)
(0.889664 0.414005 3.79526e-22)
(0.898516 0.422891 -5.67188e-23)
(0.90834 0.43129 0)
(0.919223 0.439227 -4.34124e-22)
(0.931292 0.446535 7.70482e-22)
(0.944297 0.452738 -1.23172e-21)
(0.958346 0.457911 -1.71279e-21)
(0.973396 0.461889 -3.80379e-22)
(0.988941 0.464235 -3.41615e-22)
(1.00486 0.464972 0)
(1.02126 0.464188 -1.01507e-20)
(1.03759 0.461704 1.08274e-20)
(1.0534 0.457549 0)
(1.06879 0.451878 -9.2099e-21)
(1.0837 0.444785 5.27777e-21)
(1.09775 0.436403 -1.12154e-20)
(1.11065 0.426956 5.25708e-21)
(1.1225 0.416587 0)
(1.13341 0.405382 6.48906e-21)
(1.14333 0.393475 -6.84225e-21)
(1.152 0.381184 0)
(1.15948 0.368658 -1.48581e-20)
(1.16601 0.35584 1.55341e-20)
(1.17162 0.342801 8.11848e-21)
(1.17632 0.329621 -1.57434e-20)
(1.18006 0.316572 0)
(1.18292 0.303705 2.57907e-22)
(1.18504 0.290878 -1.63171e-20)
(1.18647 0.27812 8.63871e-21)
(1.18723 0.265462 0)
(1.18735 0.253038 4.3755e-21)
(1.18689 0.2409 -4.39255e-21)
(1.18591 0.228948 4.1639e-21)
(1.18441 0.21716 4.41326e-21)
(1.18243 0.205582 8.58365e-21)
(1.17992 0.194275 4.24872e-21)
(0.869588 0.369809 0)
(0.875708 0.377898 0)
(0.882054 0.386075 4.37917e-23)
(0.8888 0.394298 -9.22214e-22)
(0.896143 0.402399 -1.90329e-23)
(0.904286 0.410428 -1.08762e-22)
(0.913274 0.418033 0)
(0.923187 0.425243 0)
(0.934137 0.431923 7.26546e-22)
(0.945923 0.43766 -7.44652e-22)
(0.958648 0.442528 3.44099e-22)
(0.97229 0.446381 -1.3737e-21)
(0.986432 0.448824 0)
(1.00098 0.449864 0)
(1.01603 0.449575 5.07257e-21)
(1.03111 0.447764 -5.87052e-21)
(1.04584 0.444426 6.26961e-22)
(1.06027 0.439689 4.70031e-21)
(1.07436 0.433619 -8.13917e-21)
(1.08776 0.426309 0)
(1.10018 0.417935 4.76637e-21)
(1.1117 0.408627 5.07375e-21)
(1.12238 0.398464 0)
(1.13218 0.387566 5.79536e-21)
(1.14085 0.376208 -1.2055e-20)
(1.1484 0.364536 0)
(1.15506 0.352513 6.77344e-21)
(1.16083 0.340212 -6.57125e-21)
(1.16574 0.327713 2.02608e-20)
(1.16971 0.315267 0)
(1.17281 0.302934 1.42429e-20)
(1.17519 0.290593 7.44369e-21)
(1.17687 0.278278 7.08812e-21)
(1.17788 0.266023 -7.35222e-21)
(1.17824 0.253958 7.41897e-21)
(1.17801 0.242134 0)
(1.17724 0.230466 -3.85413e-21)
(1.17595 0.218937 0)
(1.17416 0.207591 -3.86372e-21)
(1.17183 0.196484 -3.91303e-21)
(0.877147 0.3622 3.63719e-22)
(0.882891 0.369579 -5.17343e-22)
(0.888844 0.377025 1.23302e-21)
(0.895156 0.384503 4.21281e-22)
(0.901996 0.391864 -2.69069e-22)
(0.909539 0.399153 1.07681e-22)
(0.917826 0.406066 -5.26714e-24)
(0.926925 0.412633 -5.1664e-22)
(0.936938 0.418744 -3.35152e-22)
(0.947699 0.424038 -6.25587e-22)
(0.959303 0.428585 2.0523e-22)
(0.97174 0.432262 2.85552e-21)
(0.984666 0.434709 -2.93007e-21)
(0.998002 0.435927 -4.56995e-22)
(1.01184 0.435977 -5.35394e-22)
(1.02578 0.434666 1.09473e-20)
(1.03949 0.431966 -5.56191e-21)
(1.053 0.42798 6.24735e-21)
(1.06627 0.422758 -7.46399e-21)
(1.079 0.416356 3.60402e-23)
(1.09089 0.408912 -4.42788e-21)
(1.102 0.400542 4.53385e-21)
(1.11239 0.391317 -1.27576e-22)
(1.12199 0.381343 0)
(1.13056 0.370855 0)
(1.1381 0.359993 -1.05779e-20)
(1.1448 0.348736 -5.47478e-21)
(1.15067 0.337154 -5.64464e-21)
(1.1557 0.325328 -3.936e-22)
(1.15984 0.313488 -1.82037e-20)
(1.16313 0.301698 5.93841e-21)
(1.1657 0.289858 0)
(1.16759 0.278005 -1.2976e-20)
(1.16881 0.266175 1.26919e-20)
(1.16937 0.254492 0)
(1.16934 0.243011 6.52746e-21)
(1.16876 0.231655 -3.30476e-21)
(1.16765 0.220412 -6.58721e-21)
(1.16603 0.209325 4.95048e-21)
(1.16386 0.198447 -4.89973e-21)
(0.88395 0.355099 0)
(0.889358 0.361862 0)
(0.894963 0.368673 -9.52999e-22)
(0.900892 0.375505 0)
(0.907294 0.382223 0)
(0.914322 0.38887 6.62147e-24)
(0.922008 0.395177 -6.78735e-24)
(0.930414 0.401176 4.87812e-22)
(0.939631 0.406773 8.92239e-22)
(0.949518 0.411654 1.94485e-21)
(0.960163 0.415884 2.6813e-21)
(0.971564 0.419358 2.43473e-21)
(0.983431 0.42175 -2.14108e-21)
(0.995701 0.423059 1.90728e-22)
(1.00846 0.423337 -3.56983e-21)
(1.02137 0.422395 8.93154e-21)
(1.03412 0.42019 -4.75956e-21)
(1.04676 0.416809 5.37021e-21)
(1.05924 0.412285 0)
(1.07128 0.40665 1.40104e-20)
(1.08262 0.400007 -1.40832e-20)
(1.09329 0.392462 -7.50306e-21)
(1.10332 0.384076 -1.65967e-20)
(1.11266 0.37494 -4.64245e-22)
(1.12106 0.365255 -3.00812e-22)
(1.12852 0.355152 1.92347e-20)
(1.1352 0.344623 5.1069e-21)
(1.14109 0.333735 1.51098e-20)
(1.1462 0.322564 -1.54865e-20)
(1.15044 0.311322 5.52804e-21)
(1.15386 0.300077 1.09104e-20)
(1.15658 0.288745 -1.10056e-20)
(1.15863 0.277365 0)
(1.16001 0.265975 -5.84055e-21)
(1.16075 0.254692 0)
(1.16089 0.243573 1.52502e-22)
(1.16048 0.232551 -5.794e-21)
(1.15953 0.221618 0)
(1.15806 0.210816 5.65064e-21)
(1.15603 0.200192 1.69329e-22)
(0.890103 0.348443 6.60208e-22)
(0.895207 0.354667 -1.1756e-22)
(0.900498 0.360922 1.50194e-22)
(0.906087 0.367189 -2.88502e-24)
(0.912102 0.373345 7.91131e-22)
(0.918678 0.379428 -7.1583e-24)
(0.925843 0.385201 1.31914e-22)
(0.93365 0.390695 2.53212e-22)
(0.94218 0.395831 4.49496e-22)
(0.951314 0.40033 -1.60187e-21)
(0.961129 0.404255 -1.54125e-21)
(0.97163 0.407516 0)
(0.982571 0.409818 4.72447e-21)
(0.993898 0.411158 7.98607e-23)
(1.00569 0.411582 -6.22906e-21)
(1.01766 0.410911 -3.9906e-21)
(1.02954 0.409092 4.15053e-21)
(1.04136 0.406197 4.62967e-21)
(1.05309 0.402249 -5.09945e-21)
(1.06446 0.397259 0)
(1.07523 0.391307 6.57626e-21)
(1.08543 0.384484 7.4428e-21)
(1.09508 0.376843 8.79501e-22)
(1.10411 0.368462 -2.25975e-20)
(1.1123 0.359513 -7.7155e-21)
(1.11962 0.350117 0)
(1.12622 0.340274 8.71282e-21)
(1.13208 0.330046 -1.80163e-20)
(1.1372 0.319507 9.45396e-21)
(1.14149 0.308851 -3.39733e-22)
(1.145 0.298144 9.17066e-21)
(1.14783 0.28732 1.91189e-20)
(1.14999 0.276417 -4.79247e-21)
(1.15151 0.265475 0)
(1.15239 0.254606 -4.90091e-21)
(1.15267 0.243864 5.24181e-21)
(1.15239 0.233194 0)
(1.15158 0.222589 4.98602e-21)
(1.15025 0.212091 -6.57492e-21)
(1.14835 0.201743 3.92485e-21)
(0.895691 0.342185 0)
(0.900518 0.347931 0)
(0.905525 0.353696 -3.33375e-22)
(0.910806 0.359464 -2.56519e-24)
(0.916475 0.365123 -1.10635e-21)
(0.922651 0.370708 0)
(0.929356 0.376008 8.65103e-23)
(0.936638 0.381052 -6.90375e-22)
(0.944569 0.385772 0)
(0.953044 0.389922 0)
(0.962135 0.393559 0)
(0.971849 0.396605 -1.82063e-21)
(0.981973 0.398796 1.6903e-21)
(0.992464 0.400127 -2.79573e-22)
(1.0034 0.40064 -1.49557e-22)
(1.01452 0.400166 -7.2033e-23)
(1.0256 0.398647 -3.05506e-22)
(1.03665 0.396144 -4.36343e-21)
(1.04766 0.39267 0)
(1.05838 0.388225 0)
(1.0686 0.382867 0)
(1.07832 0.376675 1.81983e-20)
(1.08757 0.369694 -1.17585e-20)
(1.09626 0.361993 1.36316e-20)
(1.1042 0.353715 3.99666e-22)
(1.11134 0.344972 -7.3808e-21)
(1.11781 0.33577 7.45233e-21)
(1.1236 0.326167 -7.90307e-21)
(1.12868 0.316233 1.57497e-20)
(1.13298 0.306142 -5.33353e-22)
(1.13653 0.295964 -8.71167e-21)
(1.13943 0.285642 -5.37903e-22)
(1.14168 0.275216 -3.96449e-21)
(1.14329 0.264726 8.83574e-21)
(1.14428 0.254276 1.5067e-22)
(1.14467 0.243923 -4.50037e-21)
(1.14452 0.233618 4.51587e-21)
(1.14382 0.223357 -1.36587e-20)
(1.14261 0.21318 3.28819e-21)
(1.14082 0.203127 1.13244e-21)
(0.900787 0.336284 -1.77092e-22)
(0.90536 0.341605 3.20187e-22)
(0.910105 0.346934 1.24586e-21)
(0.915105 0.352258 4.86398e-22)
(0.920462 0.357476 3.93722e-22)
(0.926278 0.362619 -5.76438e-23)
(0.932573 0.367497 -7.48438e-24)
(0.93939 0.372138 -1.87893e-22)
(0.946792 0.376483 9.03666e-22)
(0.954687 0.380312 -1.50056e-21)
(0.963139 0.383679 1.07843e-21)
(0.972157 0.386516 2.08057e-22)
(0.981557 0.388585 -3.48757e-21)
(0.991302 0.38988 -4.26959e-21)
(1.00146 0.39044 2.59719e-21)
(1.01181 0.390107 5.78554e-21)
(1.02216 0.388821 3.46275e-21)
(1.03251 0.386634 -1.04782e-20)
(1.04284 0.383554 0)
(1.05295 0.379569 0)
(1.06262 0.374722 4.6378e-21)
(1.07186 0.369081 1.05861e-20)
(1.08069 0.362686 -1.09433e-20)
(1.08904 0.355593 -5.13933e-22)
(1.09669 0.347926 -4.60071e-22)
(1.10362 0.339785 -4.11746e-22)
(1.10994 0.331179 6.37719e-21)
(1.11561 0.322164 6.81212e-21)
(1.12062 0.312804 -1.45089e-20)
(1.1249 0.303258 6.77595e-21)
(1.12845 0.293593 7.49739e-21)
(1.13138 0.283764 -4.07265e-22)
(1.13368 0.27381 2.83864e-22)
(1.13536 0.26377 7.83748e-21)
(1.13643 0.253744 -3.95166e-21)
(1.13691 0.243787 -7.98357e-21)
(1.13685 0.233856 4.02292e-21)
(1.13625 0.223951 4.16442e-21)
(1.13514 0.214109 -2.44949e-22)
(1.13345 0.204367 0)
(0.905449 0.330712 1.13033e-21)
(0.909787 0.335652 -2.03494e-22)
(0.914291 0.340589 -6.19885e-22)
(0.919034 0.345516 -4.1983e-22)
(0.924105 0.350339 -4.64331e-23)
(0.929595 0.355085 1.27979e-23)
(0.935521 0.359585 -1.50691e-22)
(0.941921 0.363863 2.77491e-22)
(0.948851 0.367868 0)
(0.956229 0.371404 7.63662e-22)
(0.964113 0.37452 -1.02724e-21)
(0.972512 0.377156 2.72057e-21)
(0.981265 0.379098 -4.65218e-21)
(0.990341 0.38034 1.87138e-21)
(0.999803 0.380917 4.67431e-21)
(1.00946 0.380683 -7.39496e-21)
(1.01912 0.379578 0)
(1.02882 0.377647 3.33466e-21)
(1.03852 0.374894 0)
(1.04804 0.371298 3.75619e-21)
(1.05719 0.366892 -1.30988e-20)
(1.06597 0.361734 8.79764e-21)
(1.07438 0.355857 -9.7078e-21)
(1.08237 0.349309 0)
(1.08973 0.342196 -5.2438e-21)
(1.09642 0.334608 0)
(1.10255 0.326557 -1.19376e-20)
(1.10808 0.318093 1.20512e-20)
(1.113 0.309276 0)
(1.11721 0.300251 -1.32302e-20)
(1.12074 0.291082 -8.51041e-23)
(1.12367 0.281733 6.51747e-21)
(1.12599 0.272242 -6.84048e-21)
(1.12772 0.262649 0)
(1.12884 0.253047 0)
(1.12939 0.243488 0)
(1.1294 0.233938 1.0513e-20)
(1.12888 0.224398 -3.59908e-21)
(1.12786 0.214902 -2.2042e-22)
(1.12625 0.205483 0)
(0.909728 0.325443 -2.42407e-22)
(0.913848 0.330039 -1.8323e-22)
(0.918127 0.334624 5.22736e-22)
(0.922632 0.339192 -3.92462e-22)
(0.92744 0.343659 -4.60629e-23)
(0.932632 0.348048 1.52026e-22)
(0.938224 0.352207 -1.08805e-23)
(0.944247 0.356157 -2.59709e-22)
(0.950752 0.359854 7.63556e-22)
(0.957666 0.36312 6.30096e-22)
(0.96504 0.366003 0)
(0.972884 0.368447 1.24223e-21)
(0.981055 0.370261 1.76669e-22)
(0.989528 0.371439 -1.84177e-21)
(0.998359 0.372013 3.60332e-21)
(1.00738 0.371846 0)
(1.01643 0.370883 0)
(1.02552 0.369159 1.13798e-20)
(1.03463 0.366678 5.27704e-22)
(1.04359 0.363414 -3.5311e-21)
(1.05224 0.359388 7.21116e-21)
(1.06056 0.354653 -7.74867e-21)
(1.06857 0.349235 -3.84335e-21)
(1.07619 0.343177 -9.26741e-21)
(1.08324 0.336566 1.43642e-20)
(1.08969 0.329485 1.01876e-20)
(1.09561 0.321947 -2.59384e-20)
(1.10098 0.313998 1.59479e-20)
(1.10577 0.305693 1.12853e-20)
(1.1099 0.297164 -5.82586e-21)
(1.11338 0.288472 0)
(1.11628 0.279589 5.83309e-21)
(1.1186 0.270551 0)
(1.12035 0.261399 0)
(1.1215 0.252217 6.28199e-21)
(1.1221 0.243058 -1.24872e-20)
(1.12217 0.233893 -1.27752e-20)
(1.12172 0.224722 -6.21694e-21)
(1.12077 0.21558 -5.62288e-21)
(1.11923 0.206497 -7.84573e-22)
(0.913665 0.320456 0)
(0.917581 0.32474 0)
(0.921652 0.329005 -9.74856e-22)
(0.925935 0.33325 2.29785e-23)
(0.9305 0.337394 2.28849e-22)
(0.935419 0.34146 -1.01405e-22)
(0.940704 0.345309 -5.23418e-23)
(0.946384 0.348961 0)
(0.952503 0.352376 -4.05426e-22)
(0.958997 0.355396 -1.72943e-21)
(0.965911 0.358061 1.51051e-21)
(0.973253 0.360325 1.93128e-21)
(0.980899 0.362013 0)
(0.988824 0.36312 -2.83975e-21)
(0.997083 0.363675 -6.97936e-21)
(1.00552 0.363552 7.55605e-21)
(1.014 0.362699 3.8065e-22)
(1.02253 0.361145 -1.52199e-20)
(1.03109 0.35889 5.71615e-21)
(1.03954 0.355909 -1.84699e-20)
(1.0477 0.352214 -4.72794e-22)
(1.05559 0.347849 4.91517e-22)
(1.06319 0.34284 5.20529e-22)
(1.07045 0.337221 8.23189e-21)
(1.07719 0.331066 3.43749e-22)
(1.08338 0.324449 -8.32543e-21)
(1.08908 0.317385 -4.75335e-21)
(1.09427 0.309917 -5.24412e-21)
(1.09892 0.302094 9.83746e-21)
(1.10294 0.294036 -5.31007e-21)
(1.10635 0.285801 0)
(1.10921 0.277367 -1.53748e-22)
(1.11151 0.268771 -1.62156e-20)
(1.11325 0.260049 -2.62325e-23)
(1.11442 0.251283 5.60081e-21)
(1.11505 0.242523 5.84584e-21)
(1.11516 0.233743 5.88312e-21)
(1.11476 0.224946 5.90746e-21)
(1.11387 0.216164 8.5103e-21)
(1.11239 0.207424 0)
(0.917297 0.315733 3.11838e-23)
(0.921023 0.319733 -5.30993e-22)
(0.924898 0.323708 4.54723e-22)
(0.928974 0.327657 -3.68099e-22)
(0.933313 0.331508 -1.52178e-22)
(0.937979 0.33528 0)
(0.942982 0.338847 5.03071e-23)
(0.948347 0.342228 0)
(0.954114 0.345386 -6.80629e-22)
(0.960225 0.348178 1.08012e-21)
(0.96672 0.350642 -1.4478e-21)
(0.973608 0.352735 -1.84966e-21)
(0.980775 0.354301 -2.13291e-21)
(0.988203 0.355333 -1.04299e-22)
(0.995938 0.355858 6.02006e-21)
(1.00385 0.355762 7.70836e-23)
(1.0118 0.354993 3.59253e-22)
(1.01981 0.353578 0)
(1.02786 0.351514 1.0248e-20)
(1.03581 0.348774 -5.20285e-21)
(1.04352 0.345367 6.07269e-21)
(1.05099 0.34133 -6.08366e-21)
(1.0582 0.336683 2.01325e-20)
(1.0651 0.331458 0)
(1.07153 0.325717 0)
(1.07746 0.319526 5.22189e-22)
(1.08294 0.312901 -8.57903e-21)
(1.08793 0.30588 0)
(1.09242 0.29851 -3.59746e-22)
(1.09633 0.290897 9.08522e-21)
(1.09965 0.2831 -3.39002e-22)
(1.10244 0.275098 9.5319e-21)
(1.1047 0.26693 5.04723e-21)
(1.10642 0.258629 -9.77276e-21)
(1.1076 0.250272 -9.69404e-24)
(1.10824 0.241906 5.06439e-21)
(1.10838 0.23351 0)
(1.10802 0.225088 2.41602e-21)
(1.10718 0.21667 -2.71973e-21)
(1.10576 0.208279 -4.78709e-21)
(0.920654 0.31126 6.24282e-23)
(0.924201 0.315001 8.9637e-22)
(0.927894 0.318709 -1.11817e-22)
(0.931776 0.322388 5.57036e-22)
(0.935904 0.325972 1.81469e-22)
(0.940334 0.329475 6.85231e-23)
(0.945076 0.332784 8.50524e-23)
(0.950152 0.335917 0)
(0.955595 0.338839 1.26811e-21)
(0.961356 0.341421 0)
(0.967468 0.343698 0)
(0.97394 0.345631 0)
(0.980671 0.347079 3.95772e-21)
(0.987642 0.348035 0)
(0.994898 0.348524 2.72373e-22)
(1.00232 0.34844 -9.35984e-21)
(1.00979 0.347736 6.83532e-21)
(1.01731 0.346434 3.85691e-21)
(1.02488 0.344531 0)
(1.03238 0.342 -4.67955e-21)
(1.03966 0.338843 -5.42192e-21)
(1.04672 0.335095 1.54613e-24)
(1.05355 0.330773 -6.59687e-21)
(1.0601 0.325902 5.89976e-21)
(1.06623 0.320537 6.63738e-21)
(1.07189 0.314737 4.62206e-22)
(1.07714 0.308517 -7.19121e-21)
(1.08193 0.301912 -3.28798e-22)