/*--------------------------------*- C++ -*----------------------------------*\
| =========                 |                                                 |
| \\      /  F ield         | OpenFOAM: The Open Source CFD Toolbox           |
|  \\    /   O peration     | Version:  3.0.1                                 |
|   \\  /    A nd           | Web:      www.OpenFOAM.org                      |
|    \\/     M anipulation  |                                                 |
\*---------------------------------------------------------------------------*/
FoamFile
{
    version     2.0;
    format      ascii;
    class       volScalarField;
    location    "500";
    object      nuTilda;
}
// * * * * * * * * * * * * * * * * * * * * * * * * * * * * * * * * * * * * * //

dimensions      [0 2 -1 0 0 0 0];

internalField   nonuniform List<scalar> 
58000
(
0.000780432
0.000721575
0.000649574
0.000585028
0.000533985
0.000493927
0.000466451
0.000444044
0.000428791
0.000419328
0.000412406
0.000408279
0.000407079
0.000405727
0.000404449
0.000403973
0.000404382
0.00040536
0.000406683
0.000408389
0.000410517
0.000412862
0.000415421
0.000417975
0.000420719
0.000423326
0.000425955
0.000428566
0.000431009
0.000433407
0.000435511
0.000437423
0.000439086
0.000440433
0.000441525
0.000441905
0.000441252
0.000440135
0.000438929
0.000439262
0.00293156
0.00261379
0.00226019
0.00193793
0.00167916
0.00147438
0.00131801
0.00119321
0.00109719
0.00102563
0.000969034
0.000926057
0.000894132
0.000868163
0.00084433
0.000825594
0.000811634
0.000799539
0.000788201
0.000778987
0.000772409
0.000766813
0.000761689
0.000756738
0.000753561
0.000750717
0.000747904
0.000745059
0.000741997
0.000739653
0.000737378
0.000733795
0.000728984
0.000723195
0.000716858
0.000709064
0.000700581
0.00069227
0.000684514
0.000681294
0.00515381
0.00477348
0.00432673
0.00385663
0.00342724
0.00305487
0.0027581
0.00251382
0.00231694
0.00216404
0.00204034
0.00193881
0.00186254
0.00180154
0.00174915
0.00170865
0.0016784
0.00165336
0.00163124
0.00161374
0.0016011
0.00159032
0.00158023
0.00157024
0.00156292
0.00155522
0.00154633
0.00153646
0.00152562
0.00151626
0.00150684
0.00149689
0.00148643
0.00147511
0.00146277
0.0014479
0.00143101
0.0014138
0.00139787
0.00138972
0.0073704
0.00695042
0.00643741
0.00589477
0.00537217
0.00488318
0.00446815
0.00411124
0.00381401
0.00357728
0.00337833
0.00321239
0.00308402
0.00297939
0.00288879
0.00281685
0.00276114
0.00271441
0.00267324
0.00263988
0.00261432
0.00259215
0.00257
0.00254742
0.00252946
0.00251309
0.00249652
0.00247945
0.00246134
0.00244477
0.0024277
0.00240931
0.00238969
0.00236892
0.00234789
0.00232401
0.00229753
0.00227037
0.00224472
0.00222743
0.00956289
0.00912252
0.00857591
0.00798889
0.0074038
0.00684464
0.00634764
0.00590127
0.0055142
0.00519563
0.00492113
0.00468704
0.00450152
0.00434762
0.00421284
0.0041038
0.00401752
0.00394398
0.0038782
0.00382324
0.00377851
0.00373873
0.00370133
0.00366505
0.00363614
0.0036089
0.00358097
0.00355221
0.00352242
0.00349646
0.00346993
0.00344152
0.00341128
0.00337936
0.00334756
0.0033127
0.00327474
0.00323576
0.00319848
0.00316974
0.0117275
0.0112751
0.0107109
0.0100957
0.00947598
0.00886822
0.00831408
0.00780457
0.00734709
0.00695878
0.00661615
0.00631707
0.00607421
0.00586932
0.00568773
0.00553762
0.00541617
0.00531156
0.00521622
0.00513461
0.00506799
0.00500891
0.00495432
0.00490062
0.00485506
0.00481348
0.00477238
0.00473129
0.0046886
0.00464933
0.00461076
0.00457119
0.00452918
0.00448486
0.00444063
0.00439316
0.00434216
0.00428984
0.00423931
0.00419716
0.0138678
0.0134081
0.0128351
0.012205
0.0115647
0.0109252
0.010332
0.00977283
0.00926238
0.00881915
0.00841972
0.00806194
0.00776501
0.00751042
0.0072829
0.0070904
0.00693117
0.00679126
0.0066642
0.00655493
0.00646518
0.00638389
0.00630699
0.00623352
0.0061715
0.00611412
0.00605733
0.00600039
0.0059433
0.00589016
0.00583798
0.00578503
0.00572924
0.00567076
0.00561241
0.00555081
0.00548539
0.0054184
0.0053532
0.00529606
0.0159871
0.0155228
0.0149458
0.0143083
0.0136565
0.0129976
0.0123765
0.0117839
0.011233
0.0107428
0.0102944
0.00988841
0.00954424
0.00924353
0.00896961
0.00873544
0.00853952
0.00836565
0.00820659
0.00806852
0.00795144
0.00784609
0.00774681
0.00765257
0.00757027
0.00749491
0.00742174
0.00734819
0.00727392
0.00720569
0.00713863
0.00707051
0.00699938
0.00692542
0.00685165
0.00677467
0.00669366
0.00661086
0.00652979
0.00645637
0.018089
0.0176216
0.0170431
0.0164023
0.0157443
0.0150747
0.0144355
0.0138195
0.0132365
0.0127125
0.0122254
0.0117765
0.0113899
0.0110476
0.0107323
0.010459
0.0102284
0.0100209
0.00982911
0.00966002
0.00951559
0.00938604
0.00926311
0.00914535
0.00904267
0.00894792
0.00885518
0.00876401
0.00867197
0.00858685
0.00850312
0.00841743
0.00833013
0.00823987
0.00814971
0.00805636
0.00795875
0.00785914
0.00776114
0.00767034
0.0201766
0.0197071
0.0191286
0.0184869
0.0178243
0.0171504
0.0165005
0.015869
0.0152633
0.0147122
0.0141926
0.0137102
0.0132884
0.0129095
0.0125567
0.0122465
0.0119797
0.0117392
0.0115162
0.0113186
0.0111468
0.0109907
0.010844
0.0107029
0.0105772
0.0104625
0.01035
0.0102394
0.0101281
0.0100246
0.00992322
0.00981987
0.00971512
0.00960755
0.00949996
0.0093892
0.00927404
0.00915673
0.0090409
0.00893179
0.0222523
0.0217813
0.0212041
0.0205637
0.0199004
0.0192238
0.0185669
0.0179245
0.017303
0.01673
0.0161866
0.0156765
0.0152245
0.0148124
0.0144261
0.0140828
0.0137841
0.0135133
0.0132599
0.0130321
0.0128329
0.0126516
0.0124793
0.012315
0.0121669
0.0120298
0.011897
0.0117651
0.0116342
0.0115108
0.0113916
0.0112703
0.0111476
0.0110228
0.0108966
0.0107674
0.0106339
0.0104982
0.0103638
0.0102357
0.024318
0.023846
0.0232707
0.0226328
0.0219708
0.0212937
0.0206324
0.0199811
0.01935
0.0187616
0.0181991
0.0176646
0.0171864
0.0167487
0.0163341
0.0159612
0.0156327
0.0153313
0.0150485
0.0147936
0.0145679
0.0143599
0.014163
0.0139735
0.0138031
0.0136442
0.0134904
0.0133373
0.0131846
0.0130419
0.012904
0.0127632
0.012622
0.0124785
0.0123335
0.0121857
0.0120335
0.011879
0.0117255
0.0115779
0.0263754
0.0259027
0.0253295
0.0246948
0.0240354
0.0233596
0.0226966
0.0220404
0.0214017
0.0208017
0.0202245
0.0196713
0.0191716
0.0187105
0.0182704
0.0178711
0.0175158
0.0171873
0.0168769
0.0165938
0.0163428
0.0161098
0.0158871
0.015674
0.0154792
0.0152975
0.0151229
0.0149492
0.0147755
0.0146128
0.0144553
0.014295
0.0141341
0.0139712
0.0138071
0.0136404
0.0134692
0.0132954
0.0131226
0.0129549
0.0284261
0.0279525
0.0273815
0.0267505
0.0260943
0.0254209
0.0247579
0.0240993
0.0234554
0.0228465
0.0222574
0.0216897
0.0211723
0.0206906
0.0202267
0.0198032
0.0194236
0.0190716
0.0187362
0.0184273
0.01815
0.0178933
0.0176469
0.0174102
0.0171921
0.0169871
0.0167895
0.0165955
0.0164011
0.0162182
0.0160409
0.0158607
0.0156792
0.0154973
0.0153141
0.0151283
0.0149378
0.0147445
0.0145518
0.0143638
0.0304715
0.0299962
0.0294275
0.0288003
0.0281479
0.0274777
0.0268159
0.0261566
0.0255094
0.0248936
0.0242938
0.0237155
0.0231837
0.0226836
0.0222019
0.021758
0.021356
0.020979
0.0206192
0.0202872
0.0199856
0.0197041
0.0194352
0.0191753
0.0189344
0.0187074
0.018487
0.0182725
0.0180576
0.0178533
0.0176567
0.0174571
0.0172559
0.0170545
0.0168519
0.0166466
0.0164366
0.0162235
0.0160108
0.0158022
0.0325084
0.0320333
0.0314675
0.0308446
0.0301965
0.0295301
0.0288705
0.0282117
0.0275629
0.0269425
0.0263353
0.0257475
0.0252034
0.024689
0.0241915
0.0237298
0.0233079
0.022909
0.0225256
0.0221688
0.0218432
0.0215398
0.0212482
0.0209632
0.0207007
0.0204542
0.0202129
0.0199765
0.0197421
0.0195175
0.0193
0.0190815
0.0188611
0.0186401
0.0184178
0.0181929
0.0179631
0.0177301
0.017497
0.0172675
0.0345394
0.0340647
0.0335022
0.032884
0.0322405
0.0315784
0.0309215
0.0302641
0.0296149
0.0289916
0.0283791
0.0277835
0.0272278
0.0267025
0.0261917
0.0257143
0.0252746
0.0248557
0.0244493
0.0240712
0.0237233
0.0233962
0.0230824
0.0227768
0.0224931
0.0222266
0.0219646
0.0217072
0.021453
0.0212083
0.0209705
0.0207325
0.0204923
0.0202516
0.0200095
0.0197648
0.0195151
0.0192619
0.0190084
0.0187579
0.0365653
0.036091
0.035532
0.0349188
0.0342803
0.0336226
0.032969
0.0323138
0.0316651
0.03104
0.030424
0.0298227
0.0292582
0.0287227
0.0282001
0.0277086
0.0272527
0.026816
0.0263894
0.0259894
0.025622
0.0252738
0.0249394
0.0246127
0.024308
0.0240215
0.0237391
0.0234612
0.0231873
0.0229226
0.0226648
0.0224072
0.0221473
0.0218867
0.0216247
0.0213601
0.0210904
0.020817
0.0205429
0.0202714
0.0385861
0.0381125
0.0375571
0.0369492
0.0363163
0.0356632
0.0350131
0.0343604
0.0337131
0.0330872
0.0324688
0.0318633
0.031292
0.0307476
0.0302145
0.0297102
0.0292395
0.0287867
0.0283422
0.027923
0.0275371
0.027168
0.0268117
0.0264663
0.0261418
0.0258353
0.0255333
0.0252355
0.0249421
0.0246577
0.0243801
0.024103
0.0238234
0.023543
0.0232611
0.0229766
0.022687
0.0223934
0.0220988
0.0218062
0.0406018
0.0401291
0.0395776
0.0389753
0.0383492
0.0377001
0.0370535
0.0364039
0.0357585
0.0351328
0.034513
0.0339044
0.0333276
0.0327757
0.0322334
0.0317176
0.031232
0.0307653
0.030305
0.029868
0.0294622
0.0290755
0.0287001
0.0283359
0.0279918
0.0276647
0.0273442
0.0270273
0.0267149
0.0264112
0.0261142
0.0258178
0.0255186
0.0252182
0.0249166
0.0246125
0.0243032
0.0239896
0.0236745
0.0233609
0.0426125
0.0421409
0.0415931
0.0409961
0.0403758
0.0397321
0.0390899
0.0384439
0.0378011
0.0371762
0.0365561
0.0359454
0.0353641
0.0348058
0.0342556
0.0337301
0.0332325
0.0327509
0.0322764
0.0318232
0.0313999
0.0309954
0.0306016
0.0302192
0.0298563
0.02951
0.0291708
0.0288349
0.0285034
0.0281809
0.0278649
0.0275495
0.0272309
0.02691
0.0265895
0.0262664
0.0259375
0.025604
0.0252686
0.0249341
0.0446179
0.0441476
0.0436039
0.0430122
0.0423973
0.0417594
0.0411221
0.0404802
0.0398404
0.0392172
0.0385977
0.0379857
0.0374011
0.0368368
0.0362796
0.0357457
0.0352393
0.0347455
0.0342555
0.0337865
0.0333476
0.0329254
0.0325136
0.0321134
0.0317325
0.031368
0.0310108
0.0306562
0.0303049
0.0299646
0.0296305
0.0292967
0.0289593
0.0286191
0.0282795
0.0279371
0.0275887
0.0272353
0.0268797
0.0265244
0.0466177
0.0461491
0.0456097
0.0450238
0.0444142
0.0437819
0.0431499
0.0425128
0.0418761
0.0412551
0.0406381
0.0400246
0.0394383
0.038868
0.0383041
0.0377621
0.0372463
0.0367413
0.0362384
0.0357547
0.035299
0.0348619
0.0344337
0.0340153
0.0336184
0.0332369
0.0328624
0.0324899
0.0321202
0.031762
0.0314098
0.0310578
0.030702
0.0303434
0.0299849
0.0296232
0.0292553
0.0288822
0.0285065
0.0281305
0.0486116
0.0481449
0.0476102
0.0470312
0.046426
0.0457994
0.0451729
0.044542
0.0439078
0.0432885
0.0426729
0.0420595
0.0414714
0.0408971
0.0403278
0.0397786
0.0392537
0.0387384
0.0382238
0.0377269
0.0372567
0.0368048
0.036361
0.0359264
0.0355133
0.0351152
0.0347239
0.0343342
0.0339469
0.0335711
0.0332011
0.0328313
0.0324578
0.032082
0.0317041
0.0313231
0.0309359
0.0305433
0.0301476
0.0297512
0.0505987
0.0501343
0.0496044
0.0490309
0.0484315
0.047811
0.0471901
0.0465642
0.045934
0.0453173
0.0447033
0.0440906
0.0435013
0.0429241
0.0423502
0.0417944
0.041261
0.0407359
0.0402106
0.0397017
0.0392181
0.0387523
0.0382939
0.037844
0.0374154
0.0370013
0.0365937
0.0361874
0.0357831
0.0353903
0.0350029
0.0346157
0.0342245
0.0338309
0.0334347
0.033035
0.032629
0.0322172
0.031802
0.0313855
0.0525784
0.0521167
0.0515928
0.0510237
0.0504303
0.0498164
0.0492015
0.0485806
0.0479548
0.0473413
0.0467294
0.0461179
0.045528
0.0449489
0.044371
0.0438091
0.0432675
0.0427327
0.0421976
0.0416776
0.0411817
0.0407028
0.0402307
0.0397664
0.039323
0.0388934
0.0384702
0.0380478
0.0376272
0.0372179
0.0368137
0.0364094
0.0360009
0.0355898
0.0351756
0.0347578
0.0343333
0.0339027
0.0334683
0.0330321
0.0545499
0.0540911
0.0535718
0.0530086
0.0524217
0.051815
0.0512077
0.0505911
0.04997
0.0493603
0.0487509
0.0481413
0.0475513
0.046972
0.04639
0.045822
0.0452724
0.0447272
0.0441835
0.0436535
0.0431461
0.042655
0.0421699
0.0416921
0.0412346
0.0407901
0.0403518
0.0399141
0.0394779
0.0390527
0.0386321
0.0382113
0.0377859
0.0373576
0.036926
0.0364904
0.0360479
0.035599
0.0351458
0.0346902
0.0565124
0.0560578
0.0555421
0.054985
0.054405
0.0538059
0.0532049
0.0525941
0.0519786
0.0513743
0.050767
0.0501606
0.0495695
0.0489891
0.048406
0.0478324
0.0472754
0.0467212
0.0461683
0.0456284
0.0451101
0.0446075
0.0441102
0.0436196
0.0431487
0.04269
0.0422369
0.0417848
0.0413339
0.0408934
0.0404571
0.0400201
0.0395784
0.0391333
0.0386847
0.0382318
0.0377717
0.0373049
0.0368334
0.0363589
0.0584642
0.0580129
0.0575026
0.0569522
0.0563799
0.0557895
0.0551939
0.0545891
0.0539796
0.0533796
0.0527755
0.0521717
0.0515815
0.0509998
0.0504148
0.0498387
0.0492754
0.0487118
0.0481501
0.0476008
0.0470723
0.0465589
0.0460503
0.0455478
0.0450641
0.0445917
0.0441235
0.043659
0.0431942
0.0427389
0.0422873
0.0418348
0.0413771
0.0409159
0.0404507
0.039981
0.0395039
0.0390196
0.0385303
0.0380373
0.0604052
0.0599573
0.0594528
0.0589099
0.0583453
0.0577623
0.0571735
0.0565756
0.0559736
0.055377
0.0547767
0.0541754
0.0535877
0.0530043
0.0524168
0.0518361
0.0512664
0.050696
0.0501267
0.0495692
0.0490314
0.0485081
0.0479889
0.0474753
0.0469798
0.0464947
0.0460133
0.0455357
0.0450575
0.0445881
0.0441218
0.0436542
0.0431812
0.0427042
0.0422231
0.0417371
0.0412435
0.0407424
0.0402356
0.0397248
0.0623348
0.0618905
0.0613924
0.0608576
0.0603019
0.0597252
0.0591433
0.0585527
0.0579569
0.0573654
0.0567704
0.0561708
0.0555842
0.0550017
0.0544122
0.0538258
0.0532483
0.0526726
0.0520971
0.0515323
0.0509862
0.0504537
0.0499249
0.0494011
0.0488945
0.0483977
0.047904
0.0474139
0.0469228
0.0464399
0.0459595
0.0454773
0.0449893
0.0444973
0.0440008
0.0434993
0.0429897
0.0424722
0.0419487
0.0414206
0.064252
0.0638118
0.0633205
0.0627948
0.0622458
0.0616767
0.0611027
0.0605207
0.0599304
0.0593441
0.0587534
0.0581569
0.0575712
0.0569878
0.0563962
0.0558068
0.055223
0.0546415
0.0540604
0.0534891
0.0529355
0.0523948
0.0518572
0.0513241
0.0508073
0.0502996
0.0497944
0.0492925
0.0487892
0.0482933
0.0477993
0.0473028
0.0468003
0.0462942
0.0457832
0.0452667
0.0447418
0.0442086
0.0436689
0.043124
0.0661561
0.0657203
0.0652359
0.0647178
0.0641769
0.0636163
0.0630505
0.062476
0.0618929
0.0613134
0.0607263
0.0601341
0.0595496
0.0589638
0.0583692
0.0577746
0.0571873
0.0566015
0.0560155
0.0554386
0.0548784
0.0543304
0.0537849
0.0532432
0.0527172
0.0521993
0.0516835
0.0511705
0.0506557
0.0501475
0.0496404
0.0491294
0.048614
0.0480945
0.0475696
0.0470387
0.046499
0.0459507
0.0453953
0.0448344
0.0680461
0.0676151
0.0671388
0.0666275
0.066095
0.0655437
0.0649872
0.0644192
0.0638442
0.0632694
0.062688
0.062098
0.0615144
0.060929
0.0603316
0.0597322
0.0591411
0.0585515
0.0579615
0.0573799
0.056814
0.0562595
0.055707
0.0551577
0.0546231
0.0540959
0.0535703
0.0530469
0.0525213
0.0520015
0.0514822
0.0509583
0.0504301
0.0498976
0.0493593
0.0488146
0.0482607
0.0476978
0.0471275
0.0465511
0.069921
0.0694946
0.0690254
0.0685226
0.0679994
0.0674583
0.0669091
0.0663487
0.0657805
0.0652115
0.0646347
0.0640488
0.063466
0.062879
0.0622771
0.0616763
0.0610829
0.0604906
0.0598975
0.0593122
0.0587414
0.0581813
0.0576226
0.0570665
0.0565242
0.0559885
0.0554537
0.0549208
0.054385
0.0538545
0.0533237
0.052788
0.0522476
0.0517026
0.0511515
0.0505935
0.050026
0.0494492
0.0488645
0.0482735
0.0717801
0.0713582
0.0708961
0.0704024
0.0698895
0.0693566
0.0688161
0.0682649
0.067703
0.0671407
0.0665676
0.0659828
0.0653998
0.0648101
0.0642081
0.0636067
0.063012
0.062418
0.0618227
0.0612344
0.0606598
0.0600949
0.0595309
0.0589689
0.0584196
0.0578762
0.0573331
0.0567912
0.056246
0.0557054
0.055164
0.0546173
0.0540654
0.0535086
0.0529453
0.0523747
0.0517942
0.0512041
0.0506059
0.050001
0.0736227
0.0732053
0.0727501
0.0722663
0.0717616
0.0712383
0.0707079
0.0701642
0.0696105
0.0690532
0.0684826
0.0679009
0.0673177
0.0667262
0.0661242
0.0655229
0.0649277
0.0643328
0.0637363
0.0631461
0.0625684
0.0619997
0.0614312
0.060864
0.0603086
0.0597582
0.0592074
0.0586573
0.0581032
0.0575533
0.0570021
0.0564451
0.0558826
0.0553147
0.0547398
0.0541573
0.0535645
0.0529618
0.0523508
0.0517331
0.0754481
0.0750348
0.074586
0.0741106
0.0736155
0.073103
0.0725809
0.0720465
0.0714992
0.0709455
0.0703792
0.0697992
0.0692143
0.0686245
0.0680241
0.067424
0.0668293
0.0662345
0.0656377
0.0650464
0.0644666
0.0638949
0.0633226
0.062751
0.0621902
0.0616335
0.0610758
0.0605181
0.0599554
0.0593973
0.0588372
0.0582708
0.0576983
0.0571201
0.0565343
0.0559405
0.0553361
0.0547215
0.0540985
0.053469
0.0772556
0.0768463
0.0764033
0.0759358
0.0754509
0.0749473
0.0744353
0.0739086
0.0733664
0.0728177
0.0722544
0.0716744
0.0710925
0.0705054
0.0699076
0.0693096
0.0687163
0.0681224
0.0675261
0.0669347
0.0663538
0.0657798
0.0652045
0.0646291
0.0640637
0.0635014
0.0629376
0.062373
0.0618028
0.0612369
0.0606685
0.0600934
0.0595118
0.0589239
0.058328
0.0577234
0.0571081
0.0564823
0.0558482
0.0552081
0.0790445
0.0786391
0.0782016
0.0777409
0.0772644
0.0767711
0.0762678
0.0757479
0.075213
0.0746669
0.0741055
0.0735301
0.0729521
0.0723685
0.0717743
0.0711792
0.0705881
0.0699958
0.069401
0.0688103
0.0682295
0.0676538
0.067076
0.0664976
0.0659281
0.065361
0.0647917
0.0642211
0.0636443
0.0630712
0.0624951
0.0619121
0.0613225
0.0607255
0.0601198
0.0595052
0.0588796
0.0582435
0.0575993
0.0569498
0.0808141
0.0804127
0.0799804
0.079526
0.0790565
0.0785711
0.0780761
0.0775653
0.0770374
0.0764948
0.0759373
0.0753667
0.0747931
0.0742138
0.0736237
0.0730323
0.0724441
0.0718542
0.0712615
0.0706726
0.0700938
0.0695161
0.0689362
0.0683554
0.0677825
0.0672114
0.0666373
0.0660613
0.0654787
0.064899
0.064316
0.0637259
0.06313
0.0625238
0.0619088
0.0612847
0.0606496
0.0600041
0.0593508
0.0586936
0.0825638
0.0821664
0.0817393
0.0812909
0.0808279
0.0803495
0.0798615
0.0793582
0.0788374
0.0783007
0.0777488
0.0771837
0.0766154
0.0760409
0.0754556
0.0748685
0.0742837
0.073697
0.0731069
0.0725201
0.0719425
0.0713647
0.0707839
0.0702016
0.0696262
0.0690516
0.0684734
0.0678927
0.0673048
0.0667194
0.06613
0.0655334
0.0649307
0.0643168
0.0636936
0.063061
0.0624172
0.0617632
0.0611021
0.0604387
0.0842927
0.0838995
0.0834777
0.0830352
0.0825785
0.0821068
0.0816256
0.0811291
0.0806153
0.0800852
0.0795397
0.078981
0.0784184
0.0778494
0.0772694
0.0766871
0.0761065
0.0755234
0.0749366
0.0743523
0.0737763
0.0731991
0.0726184
0.0720355
0.0714583
0.0708808
0.0702991
0.0697142
0.0691217
0.0685311
0.0679361
0.0673335
0.0667244
0.0661037
0.0654732
0.0648329
0.0641814
0.0635199
0.0628522
0.0621846
0.0860001
0.0856113
0.0851949
0.0847584
0.0843081
0.083843
0.0833684
0.0828787
0.0823719
0.0818486
0.0813101
0.0807581
0.0802018
0.0796387
0.0790646
0.0784876
0.0779116
0.0773328
0.0767499
0.0761689
0.0755949
0.075019
0.074439
0.0738565
0.0732779
0.0726981
0.0721133
0.0715244
0.0709281
0.0703331
0.0697334
0.0691255
0.0685108
0.067884
0.0672469
0.0665998
0.0659414
0.0652734
0.0646004
0.0639306
0.0876852
0.0873009
0.0868901
0.0864599
0.086016
0.0855576
0.0850896
0.0846068
0.0841071
0.083591
0.0830596
0.0825148
0.0819651
0.0814083
0.0808405
0.0802693
0.0796985
0.0791245
0.0785463
0.0779696
0.0773978
0.0768234
0.0762448
0.0756646
0.0750841
0.0745023
0.0739152
0.0733219
0.072723
0.0721247
0.0715209
0.0709086
0.0702889
0.0696567
0.0690139
0.0683607
0.0676962
0.0670227
0.0663459
0.065676
0.0893471
0.0889677
0.0885626
0.0881388
0.0877015
0.08725
0.0867888
0.086313
0.0858205
0.0853117
0.0847877
0.0842504
0.0837077
0.0831576
0.0825965
0.0820315
0.0814664
0.0808977
0.0803248
0.0797541
0.079184
0.0786112
0.0780343
0.0774553
0.0768747
0.0762919
0.0757044
0.0751077
0.0745061
0.0739049
0.0732978
0.0726819
0.072058
0.0714212
0.0707733
0.0701147
0.069445
0.0687671
0.0680877
0.0674201
0.0909852
0.0906108
0.0902117
0.0897944
0.0893639
0.0889194
0.0884652
0.0879966
0.0875116
0.0870103
0.086494
0.0859643
0.085429
0.084886
0.0843318
0.0837735
0.0832145
0.0826516
0.0820842
0.0815184
0.0809517
0.0803814
0.0798066
0.0792291
0.078649
0.0780657
0.0774758
0.0768788
0.076276
0.0756727
0.0750633
0.0744449
0.0738174
0.0731764
0.072524
0.0718608
0.0711867
0.0705053
0.069825
0.0691619
0.0925986
0.0922296
0.0918366
0.091426
0.0910024
0.0905652
0.0901182
0.089657
0.0891796
0.0886861
0.0881777
0.0876559
0.0871282
0.0865925
0.0860458
0.0854945
0.0849421
0.0843854
0.083824
0.0832631
0.0827002
0.0821332
0.0815611
0.0809855
0.0804064
0.0798232
0.0792328
0.0786354
0.0780318
0.0774273
0.0768164
0.0761974
0.075566
0.0749212
0.074265
0.073598
0.0729204
0.0722365
0.0715566
0.0709006
0.0941868
0.0938232
0.0934366
0.0930329
0.0926165
0.0921866
0.091747
0.0912934
0.0908239
0.0903384
0.0898381
0.0893245
0.0888046
0.0882767
0.0877376
0.0871938
0.0866484
0.0860987
0.085544
0.084988
0.0844291
0.0838658
0.0832973
0.0827239
0.0821461
0.0815636
0.0809736
0.0803764
0.0797727
0.0791676
0.0785556
0.0779352
0.0773016
0.0766542
0.075995
0.075325
0.0746448
0.0739596
0.0732816
0.072635
0.095749
0.0953911
0.0950111
0.0946144
0.0942052
0.0937829
0.093351
0.0929052
0.0924438
0.0919665
0.0914745
0.0909694
0.0904576
0.0899376
0.0894066
0.0888706
0.0883327
0.0877906
0.0872442
0.0866922
0.0861374
0.0855782
0.0850151
0.0844432
0.0838668
0.0832856
0.0826967
0.0821006
0.0814977
0.0808926
0.08028
0.0796586
0.0790235
0.0783744
0.0777132
0.077041
0.0763591
0.0756736
0.0749987
0.0743639
0.0972846
0.0969327
0.0965593
0.0961698
0.0957681
0.0953536
0.0949294
0.0944917
0.0940386
0.0935698
0.0930863
0.0925898
0.0920864
0.0915746
0.0910519
0.0905241
0.0899943
0.0894602
0.0889205
0.0883739
0.0878237
0.0872688
0.0867098
0.0861411
0.0855673
0.0849879
0.0844011
0.0838071
0.0832063
0.0826017
0.0819888
0.0813669
0.0807311
0.080081
0.0794185
0.078745
0.0780622
0.0773773
0.076707
0.0760861
0.0987932
0.0984473
0.0980808
0.0976986
0.0973045
0.0968978
0.0964816
0.0960522
0.0956077
0.0951476
0.0946729
0.0941852
0.0936903
0.0931869
0.0926728
0.0921536
0.0916322
0.0911077
0.0905734
0.0900323
0.0894872
0.0889369
0.088382
0.0878172
0.0872467
0.0866695
0.086086
0.0854952
0.0848984
0.0842939
0.0836806
0.0830591
0.0824234
0.0817731
0.0811102
0.0804361
0.0797532
0.0790698
0.0784052
0.0778004
0.100274
0.0999344
0.0995749
0.0992003
0.0988139
0.0984152
0.0980071
0.0975861
0.0971505
0.0966995
0.0962337
0.0957548
0.0952686
0.0947739
0.0942688
0.0937584
0.0932455
0.092729
0.0922016
0.0916667
0.0911272
0.0905819
0.0900311
0.0894709
0.0889046
0.088331
0.0877509
0.0871639
0.08657
0.0859673
0.0853553
0.0847347
0.0840997
0.0834499
0.0827873
0.0821134
0.0814311
0.0807501
0.0800922
0.0795051
0.101727
0.101394
0.101041
0.100674
0.100296
0.0999051
0.0995053
0.0990929
0.0986666
0.0982253
0.0977681
0.097298
0.0968207
0.096335
0.0958391
0.095338
0.0948342
0.0943252
0.0938048
0.0932766
0.0927433
0.0922032
0.0916558
0.0911017
0.0905405
0.0899716
0.0893963
0.0888134
0.0882223
0.0876218
0.0870117
0.0863927
0.0857593
0.0851107
0.084449
0.083776
0.0830951
0.082417
0.0817668
0.0811989
0.103151
0.102825
0.102479
0.10212
0.101749
0.101367
0.100976
0.100572
0.100155
0.0997248
0.0992755
0.0988142
0.0983459
0.0978694
0.0973832
0.0968918
0.0963986
0.0958959
0.0953825
0.0948615
0.094335
0.093801
0.0932588
0.0927099
0.0921536
0.0915902
0.0910218
0.0904431
0.0898543
0.0892564
0.088649
0.0880325
0.0874012
0.0867545
0.0860945
0.085423
0.084744
0.0840696
0.0834278
0.0828802
0.104547
0.104227
0.103889
0.103537
0.103175
0.102801
0.102418
0.102023
0.101615
0.101194
0.100754
0.100302
0.0998436
0.0993768
0.0989005
0.0984193
0.0979346
0.0974396
0.0969339
0.0964206
0.095902
0.0953745
0.0948381
0.0942946
0.0937427
0.0931855
0.092623
0.0920492
0.0914638
0.0908696
0.0902664
0.0896532
0.0890248
0.0883807
0.0877228
0.0870534
0.086377
0.0857068
0.0850739
0.0845476
0.105913
0.1056
0.10527
0.104926
0.104572
0.104206
0.103831
0.103445
0.103046
0.102635
0.102204
0.101762
0.101313
0.100857
0.100391
0.0999207
0.0994431
0.0989557
0.0984582
0.0979534
0.0974446
0.0969229
0.0963925
0.0958548
0.0953087
0.0947574
0.0942007
0.0936323
0.0930519
0.0924624
0.091864
0.0912546
0.0906294
0.0899882
0.0893331
0.0886664
0.0879931
0.0873276
0.0867039
0.0861995
0.107251
0.106944
0.106621
0.106286
0.105939
0.105582
0.105216
0.104838
0.104449
0.104046
0.103626
0.103194
0.102755
0.102308
0.101853
0.101392
0.100923
0.100444
0.0999549
0.099459
0.0989586
0.0984444
0.0979208
0.0973895
0.0968501
0.0963053
0.0957549
0.0951924
0.0946176
0.0940336
0.0934418
0.0928357
0.0922139
0.0915762
0.0909244
0.0902609
0.0895913
0.0889308
0.0883168
0.0878345
0.108558
0.108259
0.107944
0.107616
0.107278
0.106929
0.106571
0.106203
0.105822
0.105429
0.105019
0.104597
0.104168
0.103732
0.103288
0.102835
0.102374
0.101903
0.101424
0.100937
0.100445
0.0999389
0.0994227
0.0988976
0.0983663
0.0978288
0.0972851
0.0967289
0.0961601
0.095582
0.0949957
0.0943944
0.093777
0.0931435
0.0924957
0.0918361
0.0911706
0.0905156
0.0899114
0.0894513
0.109836
0.109544
0.109237
0.108917
0.108587
0.108247
0.107898
0.107538
0.107166
0.106783
0.106382
0.10597
0.105552
0.105128
0.104692
0.104248
0.103795
0.103334
0.102865
0.102389
0.101905
0.101406
0.100898
0.100381
0.0998576
0.0993278
0.098791
0.0982413
0.0976788
0.0971068
0.0965263
0.0959303
0.095318
0.0946893
0.0940461
0.0933911
0.0927302
0.0920811
0.0914867
0.0910486
0.111085
0.1108
0.1105
0.110188
0.109867
0.109535
0.109195
0.108844
0.108482
0.108108
0.107717
0.107315
0.106906
0.106492
0.106066
0.105631
0.105188
0.104736
0.104277
0.103811
0.103335
0.102846
0.102346
0.101838
0.101324
0.100802
0.100272
0.0997287
0.0991729
0.0986078
0.0980333
0.0974429
0.0968361
0.0962129
0.095575
0.094925
0.0942693
0.0936264
0.0930418
0.0926253
0.112304
0.112026
0.111733
0.11143
0.111117
0.110794
0.110462
0.11012
0.109768
0.109404
0.109023
0.10863
0.108231
0.107825
0.107409
0.106984
0.106551
0.106109
0.105661
0.105204
0.104737
0.104258
0.103767
0.103268
0.102765
0.102252
0.101727
0.10119
0.100641
0.100085
0.0995159
0.0989314
0.0983307
0.0977135
0.0970815
0.0964372
0.0957873
0.0951508
0.0945759
0.0941804
0.113493
0.113222
0.112938
0.112642
0.112337
0.112023
0.1117
0.111367
0.111024
0.11067
0.1103
0.109917
0.109526
0.109128
0.108723
0.108308
0.107884
0.107453
0.107015
0.106566
0.106109
0.10564
0.105159
0.104672
0.104176
0.103671
0.103154
0.102624
0.102083
0.101534
0.100972
0.100395
0.099801
0.0991907
0.0985652
0.0979273
0.0972835
0.0966537
0.0960883
0.095713
0.114652
0.114389
0.114112
0.113825
0.113528
0.113222
0.112908
0.112585
0.112251
0.111907
0.111549
0.111175
0.110793
0.110404
0.110008
0.109603
0.109189
0.108767
0.108338
0.1079
0.107451
0.106993
0.106522
0.106045
0.105558
0.10506
0.104551
0.10403
0.103497
0.102957
0.102403
0.101833
0.101247
0.100644
0.100026
0.0993946
0.0987575
0.0981346
0.0975785
0.0972224
0.115782
0.115526
0.115257
0.114978
0.11469
0.114393
0.114087
0.113772
0.113448
0.113114
0.112766
0.112402
0.11203
0.111651
0.111264
0.110869
0.110465
0.110052
0.109632
0.109203
0.108765
0.108317
0.107857
0.107389
0.106911
0.106422
0.105921
0.105409
0.104885
0.104353
0.103807
0.103246
0.102668
0.102073
0.101463
0.100839
0.100209
0.0995931
0.0990461
0.098708
0.116883
0.116634
0.116373
0.116102
0.115822
0.115533
0.115237
0.114931
0.114616
0.114291
0.113954
0.1136
0.113238
0.112868
0.112492
0.112106
0.111712
0.111309
0.110896
0.110478
0.11005
0.109612
0.109163
0.108704
0.108235
0.107756
0.107264
0.106761
0.106246
0.105723
0.105186
0.104634
0.104064
0.103478
0.102876
0.10226
0.101637
0.101029
0.100491
0.100169
0.117955
0.117713
0.11746
0.117197
0.116925
0.116645
0.116357
0.116061
0.115755
0.11544
0.115112
0.114769
0.114417
0.114057
0.113691
0.113315
0.11293
0.112537
0.112134
0.111725
0.111307
0.110879
0.11044
0.109991
0.109532
0.109062
0.10858
0.108086
0.10758
0.107067
0.10654
0.105996
0.105436
0.104859
0.104265
0.103658
0.103043
0.102442
0.101912
0.101606
0.118998
0.118764
0.118518
0.118263
0.118
0.117728
0.117449
0.117161
0.116864
0.116559
0.116242
0.115909
0.115568
0.115218
0.11486
0.114494
0.11412
0.113737
0.113344
0.112944
0.112536
0.112118
0.111689
0.111249
0.1108
0.11034
0.109868
0.109384
0.108889
0.108385
0.107868
0.107334
0.106783
0.106215
0.105631
0.105032
0.104425
0.103831
0.103309
0.103018
0.120012
0.119785
0.119547
0.119301
0.119046
0.118782
0.118512
0.118233
0.117946
0.11765
0.117343
0.117022
0.11669
0.116349
0.116
0.115645
0.115282
0.114908
0.114525
0.114134
0.113737
0.113329
0.11291
0.11248
0.112041
0.111591
0.111129
0.110656
0.110172
0.109679
0.109171
0.108647
0.108106
0.107547
0.106972
0.106382
0.105783
0.105197
0.104682
0.104404
0.120999
0.120779
0.120549
0.12031
0.120063
0.119808
0.119546
0.119276
0.118998
0.118712
0.118415
0.118106
0.117784
0.117453
0.117113
0.116769
0.116415
0.116052
0.115679
0.115298
0.11491
0.114513
0.114104
0.113685
0.113255
0.112815
0.112364
0.111902
0.11143
0.110947
0.110448
0.109934
0.109403
0.108854
0.108288
0.107708
0.107118
0.106539
0.106032
0.105765
0.121957
0.121745
0.121522
0.121291
0.121053
0.120806
0.120553
0.120292
0.120022
0.119746
0.119459
0.119161
0.118849
0.118528
0.118199
0.117864
0.11752
0.117167
0.116805
0.116434
0.116056
0.115669
0.115271
0.114862
0.114443
0.114013
0.113573
0.113121
0.112661
0.112188
0.1117
0.111196
0.110675
0.110136
0.10958
0.109009
0.108428
0.107858
0.107357
0.1071
0.122888
0.122683
0.122468
0.122245
0.122015
0.121777
0.121532
0.121279
0.121019
0.120751
0.120475
0.120187
0.119886
0.119576
0.119256
0.118931
0.118598
0.118255
0.117903
0.117543
0.117174
0.116798
0.11641
0.116012
0.115604
0.115185
0.114755
0.114315
0.113866
0.113404
0.112926
0.112432
0.111921
0.111393
0.110847
0.110286
0.109715
0.109152
0.108658
0.108409
0.123792
0.123594
0.123387
0.123172
0.122949
0.12272
0.122483
0.12224
0.121988
0.12173
0.121463
0.121186
0.120896
0.120596
0.120286
0.11997
0.119648
0.119316
0.118975
0.118624
0.118266
0.1179
0.117523
0.117135
0.116738
0.11633
0.115911
0.115485
0.115046
0.114593
0.114126
0.113643
0.113142
0.112625
0.11209
0.111539
0.110977
0.110422
0.109934
0.109693
0.124669
0.124479
0.124279
0.124071
0.123857
0.123636
0.123408
0.123173
0.122931
0.122681
0.122424
0.122157
0.12188
0.121589
0.12129
0.120983
0.120671
0.12035
0.120019
0.119679
0.119331
0.118975
0.118609
0.118232
0.117845
0.117449
0.117041
0.116626
0.116198
0.115757
0.1153
0.114828
0.114339
0.113832
0.113307
0.112766
0.112214
0.111667
0.111185
0.110949
0.125521
0.125337
0.125145
0.124945
0.124739
0.124526
0.124306
0.12408
0.123847