/*--------------------------------*- C++ -*----------------------------------*\
| =========                 |                                                 |
| \\      /  F ield         | OpenFOAM: The Open Source CFD Toolbox           |
|  \\    /   O peration     | Version:  3.0.1                                 |
|   \\  /    A nd           | Web:      www.OpenFOAM.org                      |
|    \\/     M anipulation  |                                                 |
\*---------------------------------------------------------------------------*/
FoamFile
{
    version     2.0;
    format      ascii;
    class       volScalarField;
    location    "500";
    object      p;
}
// * * * * * * * * * * * * * * * * * * * * * * * * * * * * * * * * * * * * * //

dimensions      [0 2 -2 0 0 0 0];

internalField   nonuniform List<scalar> 
58000
(
-0.0522774
-0.333157
-0.551081
-0.679613
-0.754727
-0.808121
-0.843941
-0.866666
-0.87983
-0.883298
-0.880834
-0.874289
-0.863386
-0.850501
-0.837894
-0.825954
-0.814238
-0.803491
-0.793747
-0.784466
-0.775086
-0.766327
-0.758226
-0.75034
-0.742149
-0.733804
-0.725984
-0.718459
-0.710874
-0.702998
-0.695046
-0.68753
-0.680272
-0.672999
-0.665532
-0.656818
-0.644781
-0.63221
-0.622369
-0.614881
0.226535
0.101887
-0.0373602
-0.177018
-0.299448
-0.404689
-0.492822
-0.571256
-0.634638
-0.682904
-0.719834
-0.745099
-0.760124
-0.768537
-0.771147
-0.769121
-0.764681
-0.758915
-0.75223
-0.744999
-0.737618
-0.730301
-0.722872
-0.715378
-0.707776
-0.700466
-0.693153
-0.685771
-0.678297
-0.67074
-0.663472
-0.656222
-0.648895
-0.641404
-0.633733
-0.625916
-0.617284
-0.608562
-0.601744
-0.597839
0.159227
0.0673708
-0.0284636
-0.128889
-0.224061
-0.312844
-0.392806
-0.462979
-0.525373
-0.576166
-0.617558
-0.650586
-0.674284
-0.690564
-0.701522
-0.707583
-0.709817
-0.709565
-0.707647
-0.704494
-0.70044
-0.695749
-0.690596
-0.68514
-0.679479
-0.673642
-0.667554
-0.661307
-0.654934
-0.648533
-0.642079
-0.635467
-0.628743
-0.62189
-0.614957
-0.607934
-0.600627
-0.593229
-0.586338
-0.579872
0.1697
0.109779
0.0432041
-0.032203
-0.110805
-0.189899
-0.26505
-0.334894
-0.399342
-0.454905
-0.50328
-0.544647
-0.577202
-0.602418
-0.62231
-0.636578
-0.645821
-0.651621
-0.654918
-0.656054
-0.655437
-0.653594
-0.650869
-0.647431
-0.643414
-0.638967
-0.634128
-0.628971
-0.623514
-0.617871
-0.612117
-0.606159
-0.600017
-0.59368
-0.587215
-0.580727
-0.574173
-0.567572
-0.561123
-0.554869
0.146612
0.102716
0.0555575
0.000955818
-0.0586188
-0.122056
-0.186344
-0.248704
-0.30927
-0.363846
-0.41322
-0.457515
-0.494372
-0.524451
-0.54976
-0.569667
-0.584201
-0.594925
-0.602794
-0.608001
-0.610835
-0.611946
-0.611845
-0.610722
-0.608712
-0.605923
-0.602563
-0.598739
-0.594483
-0.589927
-0.585084
-0.579956
-0.574583
-0.568973
-0.563216
-0.557383
-0.551465
-0.545442
-0.539345
-0.53315
0.133282
0.0989639
0.0627407
0.0208994
-0.0253578
-0.0759213
-0.129356
-0.182998
-0.237281
-0.288195
-0.335933
-0.38042
-0.419087
-0.452015
-0.480934
-0.504922
-0.523602
-0.538413
-0.550224
-0.559063
-0.565098
-0.569049
-0.571512
-0.572667
-0.572615
-0.571492
-0.569632
-0.567157
-0.564103
-0.56059
-0.556653
-0.552357
-0.54775
-0.542842
-0.53772
-0.532462
-0.527085
-0.521552
-0.515848
-0.509989
0.119409
0.0916086
0.0628183
0.0297393
-0.00691145
-0.0474424
-0.0914751
-0.136652
-0.183898
-0.229682
-0.273858
-0.316376
-0.354712
-0.388443
-0.419053
-0.44547
-0.466957
-0.484768
-0.499659
-0.511514
-0.520342
-0.526853
-0.531689
-0.535012
-0.536886
-0.53743
-0.537084
-0.535983
-0.534169
-0.531756
-0.528778
-0.525362
-0.521563
-0.517398
-0.512953
-0.508298
-0.503466
-0.498425
-0.493137
-0.487631
0.107694
0.0843424
0.0605452
0.0334519
0.00358451
-0.0294981
-0.0660074
-0.103933
-0.144546
-0.184907
-0.224737
-0.264094
-0.30069
-0.333767
-0.364583
-0.392038
-0.415129
-0.434904
-0.451991
-0.466148
-0.477234
-0.4859
-0.492803
-0.498061
-0.5017
-0.503807
-0.504899
-0.505118
-0.504505
-0.503165
-0.501131
-0.498584
-0.495584
-0.49215
-0.488367
-0.484301
-0.480003
-0.475446
-0.470589
-0.465486
0.0974145
0.0773447
0.057145
0.0343374
0.00936976
-0.0181998
-0.0488661
-0.0809003
-0.11575
-0.151031
-0.186441
-0.222165
-0.256238
-0.287719
-0.31769
-0.345112
-0.368812
-0.389631
-0.408077
-0.423826
-0.436604
-0.446976
-0.455573
-0.462468
-0.467652
-0.471164
-0.473571
-0.475012
-0.475526
-0.475208
-0.474083
-0.472378
-0.470154
-0.467435
-0.464301
-0.460813
-0.457041
-0.452964
-0.448541
-0.44385
0.0884652
0.0708876
0.0533706
0.0337408
0.0124064
-0.0110315
-0.0371794
-0.0645284
-0.0945776
-0.125393
-0.156694
-0.188779
-0.220019
-0.249406
-0.277879
-0.304515
-0.328063
-0.349186
-0.368287
-0.384989
-0.39892
-0.410539
-0.420437
-0.428639
-0.43511
-0.439827
-0.443387
-0.445916
-0.447447
-0.448067
-0.447788
-0.446871
-0.44538
-0.443338
-0.440823
-0.43789
-0.434624
-0.431013
-0.427016
-0.422738
0.0806313
0.0650124
0.0495664
0.0323714
0.0138072
-0.00647301
-0.0290993
-0.0527348
-0.0788497
-0.105862
-0.133531
-0.162225
-0.19062
-0.21772
-0.244354
-0.269736
-0.292608
-0.313487
-0.332687
-0.349811
-0.364416
-0.376862
-0.387688
-0.396871
-0.404358
-0.410063
-0.414591
-0.418055
-0.420475
-0.421929
-0.422416
-0.42222
-0.421403
-0.419988
-0.41805
-0.41564
-0.412854
-0.409687
-0.4061
-0.402223
0.0737466
0.0597063
0.0459038
0.0306269
0.0142316
-0.0035806
-0.0234234
-0.0440999
-0.0670053
-0.090827
-0.115361
-0.141017
-0.166727
-0.19155
-0.216225
-0.2401
-0.261964
-0.282219
-0.301108
-0.318238
-0.333124
-0.346033
-0.357453
-0.367318
-0.37556
-0.382037
-0.387345
-0.391581
-0.394751
-0.396927
-0.398088
-0.398534
-0.398322
-0.397475
-0.396064
-0.394136
-0.391796
-0.389044
-0.385844
-0.38235
0.0676685
0.054929
0.0424622
0.0287331
0.0140757
-0.00176687
-0.0193738
-0.0376673
-0.0579457
-0.0791012
-0.100961
-0.123952
-0.147217
-0.169884
-0.192616
-0.214886
-0.235557
-0.254946
-0.273244
-0.290074
-0.304933
-0.318009
-0.329738
-0.340022
-0.348785
-0.355832
-0.36174
-0.366587
-0.370368
-0.373149
-0.374887
-0.375888
-0.376207
-0.375864
-0.374927
-0.373437
-0.371504
-0.369135
-0.366293
-0.363157
0.0622791
0.0506311
0.0392721
0.0268184
0.0135823
-0.000658032
-0.0164395
-0.032787
-0.0508971
-0.0698207
-0.0894096
-0.110088
-0.131166
-0.151849
-0.172734
-0.193403
-0.212805
-0.231195
-0.248722
-0.265039
-0.279641
-0.292653
-0.304463
-0.314945
-0.324022
-0.33146
-0.337803
-0.343113
-0.347374
-0.350643
-0.35286
-0.354331
-0.355106
-0.355201
-0.354681
-0.353581
-0.352014
-0.34999
-0.347476
-0.344669
0.0574806
0.0467636
0.0363393
0.0249552
0.0129027
-1.07305e-05
-0.0142783
-0.0290149
-0.0453165
-0.0623607
-0.0800186
-0.0986992
-0.117843
-0.136731
-0.155905
-0.175035
-0.193165
-0.210498
-0.227154
-0.242817
-0.257
-0.269776
-0.281488
-0.291991
-0.301209
-0.30888
-0.315515
-0.321155
-0.325774
-0.329424
-0.332026
-0.333884
-0.33504
-0.335508
-0.335349
-0.33459
-0.333347
-0.33163
-0.329412
-0.326905
0.053192
0.0432798
0.033656
0.023183
0.0121316
0.000334175
-0.0126598
-0.026045
-0.0408227
-0.056272
-0.0722809
-0.089236
-0.106676
-0.123958
-0.141572
-0.159257
-0.176149
-0.192416
-0.208158
-0.223088
-0.236744
-0.249161
-0.26064
-0.271027
-0.280248
-0.288022
-0.294822
-0.300675
-0.305545
-0.309477
-0.312381
-0.314547
-0.316014
-0.316792
-0.316937
-0.316472
-0.31551
-0.314064
-0.312108
-0.30987
0.0493449
0.0401361
0.031207
0.0215207
0.0113282
0.000482886
-0.0114255
-0.0236634
-0.0371431
-0.051228
-0.0658192
-0.081278
-0.0972217
-0.113072
-0.129274
-0.145622
-0.161338
-0.176566
-0.191386
-0.205545
-0.218608
-0.230583
-0.241733
-0.251901
-0.261019
-0.268789
-0.27565
-0.281616
-0.286643
-0.290771
-0.293897
-0.296301
-0.298014
-0.299043
-0.299441
-0.299223
-0.298501
-0.29729
-0.295565
-0.293566
0.0458821
0.0372942
0.0289749
0.019976
0.0105295
0.000506504
-0.0104654
-0.0217176
-0.0340806
-0.0469882
-0.060352
-0.0745075
-0.0891337
-0.103711
-0.118642
-0.133764
-0.14838
-0.162612
-0.17653
-0.189909
-0.202345
-0.213826
-0.224582
-0.234457
-0.243387
-0.251069
-0.257906
-0.263902
-0.269007
-0.273254
-0.276535
-0.279113
-0.281014
-0.282241
-0.282842
-0.28283
-0.28231
-0.2813
-0.279774
-0.277985
0.0427558
0.0347209
0.0269418
0.0185496
0.00975789
0.000453373
-0.00970208
-0.0200984
-0.0314912
-0.0433744
-0.0556686
-0.0686826
-0.0821449
-0.0955883
-0.109375
-0.12338
-0.136976
-0.150268
-0.16332
-0.175931
-0.187728
-0.198685
-0.209006
-0.218535
-0.227216
-0.234746
-0.241492
-0.24745
-0.252567
-0.256871
-0.260246
-0.262943
-0.264979
-0.266355
-0.267117
-0.267271
-0.266919
-0.266077
-0.264722
-0.263115
0.0399254
0.0323869
0.0250903
0.0172383
0.00902714
0.00035663
-0.00908012
-0.0187261
-0.0292688
-0.0402534
-0.0516083
-0.063617
-0.076047
-0.0884777
-0.101237
-0.114225
-0.12688
-0.139296
-0.151524
-0.163391
-0.174553
-0.184974
-0.194836
-0.203986
-0.212374
-0.219703
-0.226306
-0.232174
-0.237248
-0.241555
-0.244975
-0.247742
-0.249868
-0.251352
-0.252235
-0.25252
-0.252304
-0.251602
-0.250392
-0.248942
0.0373561
0.0302663
0.0234044
0.0160371
0.0083448
0.000238787
-0.00855989
-0.0175425
-0.0273339
-0.0375244
-0.0480491
-0.0591671
-0.0706778
-0.0822019
-0.0940351
-0.106099
-0.11789
-0.12949
-0.140944
-0.152099
-0.16264
-0.172527
-0.181919
-0.190671
-0.198736
-0.205828
-0.21225
-0.217986
-0.222975
-0.227241
-0.230664
-0.233459
-0.235637
-0.237192
-0.238163
-0.238548
-0.238439
-0.23785
-0.236763
-0.235446
0.0350181
0.0283367
0.021869
0.0149396
0.00771439
0.000114467
-0.00811325
-0.0165044
-0.0256273
-0.0351109
-0.0448968
-0.0552212
-0.0659095
-0.0766191
-0.0876173
-0.0988416
-0.109839
-0.120682
-0.131412
-0.14189
-0.151833
-0.161194
-0.170117
-0.178461
-0.186185
-0.193017
-0.199228
-0.2048
-0.209671
-0.213862
-0.217253
-0.220043
-0.222239
-0.223835
-0.224863
-0.225322
-0.225295
-0.224797
-0.22381
-0.222605
0.0328856
0.0265777
0.0204697
0.0139387
0.00713657
-6.32667e-06
-0.00771972
-0.01558
-0.0241036
-0.0329541
-0.0420784
-0.0516914
-0.0616403
-0.0716154
-0.0818581
-0.0923182
-0.102587
-0.11273
-0.122782
-0.132624
-0.141993
-0.150844
-0.159305
-0.16724
-0.174616
-0.181171
-0.187152
-0.192536
-0.197264
-0.201353
-0.204684
-0.207441
-0.209628
-0.211238
-0.212299
-0.212807
-0.212841
-0.212413
-0.211508
-0.210397
0.0309366
0.024972
0.0191938
0.0130272
0.00661092
-0.000116848
-0.00736416
-0.0147445
-0.0227273
-0.0310074
-0.0395358
-0.048508
-0.0577891
-0.067099
-0.0766562
-0.0864193
-0.0960193
-0.105515
-0.114937
-0.124179
-0.133005
-0.141365
-0.149374
-0.156907
-0.163932
-0.170201
-0.175939
-0.18112
-0.185686
-0.189651
-0.1929
-0.195602
-0.197758
-0.199359
-0.200431
-0.200969
-0.201044
-0.20067
-0.19983
-0.198797
0.0291518
0.0235041
0.0180299
0.0121982
0.00613579
-0.000212557
-0.0070353
-0.0139793
-0.0214714
-0.0292345
-0.0372235
-0.0456158
-0.0542915
-0.0629972
-0.0719302
-0.0810562
-0.0900416
-0.098939
-0.107775
-0.116456
-0.124765
-0.132657
-0.14023
-0.147369
-0.154046
-0.160027
-0.165514
-0.17048
-0.174871
-0.178696
-0.181847
-0.184476
-0.186582
-0.188156
-0.189222
-0.189772
-0.189874
-0.189538
-0.18875
-0.18778
0.0275145
0.0221605
0.0169677
0.0114453
0.00570864
-0.000291239
-0.00672515
-0.0132706
-0.0203154
-0.0276077
-0.035106
-0.0429711
-0.0510958
-0.0592503
-0.0676133
-0.0761554
-0.0845752
-0.0929191
-0.101211
-0.109366
-0.117189
-0.124633
-0.131789
-0.138546
-0.144881
-0.150573
-0.155806
-0.160553
-0.164759
-0.168434
-0.171473
-0.174015
-0.176058
-0.177591
-0.178636
-0.179185
-0.179298
-0.178988
-0.178241
-0.177321
0.02601
0.020929
0.0159978
0.010762
0.00532654
-0.000351982
-0.0064282
-0.0126077
-0.0192429
-0.0261046
-0.0331547
-0.0405384
-0.0481597
-0.0558097
-0.06365
-0.0716558
-0.0795539
-0.0873856
-0.095171
-0.102835
-0.110199
-0.117219
-0.123975
-0.130365
-0.136366
-0.141774
-0.146754
-0.151278
-0.155295
-0.158813
-0.16173
-0.164175
-0.166143
-0.167623
-0.168636
-0.169172
-0.169287
-0.168992
-0.168275
-0.167396
0.0246252
0.0197992
0.0151118
0.0101424
0.00498655
-0.000394514
-0.00614034
-0.0119824
-0.0182411
-0.0247073
-0.0313459
-0.0382884
-0.0454481
-0.0526349
-0.0599947
-0.0675065
-0.0749226
-0.0822795
-0.0895942
-0.0967989
-0.103732
-0.11035
-0.116726
-0.122762
-0.128441
-0.133571
-0.1383
-0.142603
-0.146428
-0.149784
-0.152573
-0.154913
-0.156798
-0.158217
-0.159189
-0.159702
-0.15981
-0.159522
-0.158826
-0.157979
0.0233487
0.0187613
0.0143021
0.00958117
0.00468555
-0.000418937
-0.00585848
-0.0113884
-0.0172995
-0.023401
-0.0296605
-0.036197
-0.0429318
-0.0496923
-0.0566096
-0.0636654
-0.0706349
-0.0775507
-0.0844273
-0.0912031
-0.0977308
-0.10397
-0.109983
-0.115683
-0.121051
-0.12591
-0.130395
-0.134477
-0.138111
-0.141303
-0.143961
-0.146191
-0.147987
-0.149338
-0.150261
-0.150745
-0.150839
-0.15055
-0.149869
-0.149046
0.0221703
0.0178067
0.0135614
0.009073
0.00442051
-0.000426053
-0.00558074
-0.0108207
-0.0164098
-0.0221737
-0.028083
-0.0342447
-0.0405872
-0.0469538
-0.0534625
-0.0600965
-0.0666516
-0.0731571
-0.0796254
-0.0860003
-0.0921474
-0.0980281
-0.103699
-0.109077
-0.114148
-0.118745
-0.12299
-0.126858
-0.130303
-0.13333
-0.135854
-0.137971
-0.139674
-0.140953
-0.141822
-0.142271
-0.142345
-0.14205
-0.141378
-0.140573
0.021081
0.0169276
0.0128834
0.00861317
0.00418858
-0.000416681
-0.00530579
-0.0102757
-0.0155655
-0.021016
-0.0266006
-0.0324152
-0.0383947
-0.0443961
-0.0505259
-0.0567689
-0.0629392
-0.0690629
-0.0751504
-0.0811503
-0.08694
-0.0924826
-0.0978288
-0.102902
-0.107687
-0.112032
-0.116047
-0.119705
-0.122964
-0.125829
-0.128219
-0.130221
-0.131829
-0.133032
-0.133843
-0.134253
-0.134302
-0.133997
-0.13333
-0.132537
0.0200726
0.0161174
0.0122626
0.00819747
0.00398709
-0.000391948
-0.00503278
-0.00975031
-0.0147612
-0.0199202
-0.0252025
-0.0306948
-0.0363374
-0.0419998
-0.0477777
-0.0536571
-0.0594693
-0.0652374
-0.0709693
-0.0766181
-0.0820719
-0.0872962
-0.0923352
-0.0971182
-0.101632
-0.105735
-0.109526
-0.112981
-0.116058
-0.118764
-0.12102
-0.122908
-0.12442
-0.125545
-0.126297
-0.126664
-0.126686
-0.126367
-0.125701
-0.124917
0.019138
0.0153698
0.0116939
0.00782211
0.00381339
-0.000353081
-0.00476129
-0.00924238
-0.0139926
-0.0188795
-0.0238801
-0.0290722
-0.034401
-0.0397477
-0.0451983
-0.0507395
-0.0562178
-0.0616537
-0.0670532
-0.0723733
-0.0775118
-0.0824357
-0.0871846
-0.0916926
-0.0959473
-0.0998185
-0.103395
-0.106653
-0.109555
-0.112104
-0.11423
-0.116004
-0.11742
-0.118467
-0.119157
-0.119481
-0.119472
-0.119137
-0.11847
-0.117691
0.0182707
0.0146794
0.0111727
0.00748351
0.00366489
-0.000301436
-0.00449103
-0.00875009
-0.0132563
-0.0178886
-0.0226258
-0.0275378
-0.0325739
-0.0376259
-0.0427711
-0.0479969
-0.0531636
-0.058289
-0.0633776
-0.0683898
-0.0732317
-0.0778727
-0.0823474
-0.0865948
-0.0906036
-0.0942533
-0.097624
-0.100693
-0.103425
-0.105822
-0.10782
-0.109482
-0.110803
-0.111772
-0.1124
-0.112679
-0.112639
-0.112286
-0.111614
-0.110838
0.0174649
0.0140411
0.0106949
0.00717831
0.00353925
-0.000238159
-0.00422183
-0.00827196
-0.0125492
-0.0169428
-0.0214333
-0.0260831
-0.0308457
-0.0356222
-0.0404819
-0.0454131
-0.0502887
-0.0551235
-0.0599209
-0.0646441
-0.0692075
-0.0735817
-0.0777975
-0.0817983
-0.0855734
-0.0890119
-0.0921858
-0.095073
-0.0976409
-0.0998917
-0.101764
-0.103318
-0.104545
-0.105437
-0.106004
-0.106236
-0.106164
-0.105792
-0.105115
-0.104339
0.0167155
0.0134505
0.0102565
0.00690341
0.00343436
-0.000164343
-0.00395383
-0.00780698
-0.0118689
-0.0160384
-0.0202972
-0.0247013
-0.0292076
-0.0337258
-0.0383185
-0.0429745
-0.0475773
-0.0521399
-0.0566643
-0.0611163
-0.0654174
-0.0695403
-0.0735116
-0.0772792
-0.0808326
-0.08407
-0.0870557
-0.0897694
-0.0921796
-0.0942889
-0.0960405
-0.0974878
-0.0986238
-0.0994406
-0.0999461
-0.100133
-0.100028
-0.0996363
-0.098953
-0.0981756
0.0160179
0.0129036
0.00985424
0.00665614
0.00334834
-8.11758e-05
-0.00368731
-0.00735441
-0.0112135
-0.0151719
-0.0192128
-0.0233861
-0.0276518
-0.0319281
-0.0362708
-0.0406688
-0.0450159
-0.0493232
-0.0535911
-0.0577883
-0.0618429
-0.0657287
-0.0694692
-0.0730161
-0.0763594
-0.0794054
-0.082212
-0.0847594
-0.0870191
-0.0889924
-0.0906271
-0.0919716
-0.0930194
-0.0937622
-0.0942081
-0.0943504
-0.094213
-0.0938007
-0.09311
-0.09233
0.0153677
0.0123968
0.00948496
0.00643411
0.00327934
1.02033e-05
-0.00342244
-0.00691351
-0.0105811
-0.0143405
-0.0181761
-0.0221322
-0.0261722
-0.0302212
-0.0343293
-0.0384855
-0.0425926
-0.0466597
-0.050687
-0.0546448
-0.0584669
-0.0621292
-0.0656519
-0.0689901
-0.0721344
-0.0749985
-0.0776344
-0.0800237
-0.0821391
-0.0839821
-0.0855046
-0.08675
-0.087712
-0.0883835
-0.0887713
-0.0888696
-0.0887001
-0.0882678
-0.0875693
-0.0867855
0.0147612
0.0119268
0.00914595
0.00623501
0.00322562
0.000108815
-0.00315946
-0.00648368
-0.00997028
-0.0135419
-0.0171837
-0.0209354
-0.0247631
-0.0285985
-0.0324863
-0.0364152
-0.0402966
-0.0441383
-0.0479389
-0.0516713
-0.0552748
-0.0587261
-0.0620431
-0.0651841
-0.0681398
-0.0708313
-0.0733051
-0.0755433
-0.0775215
-0.0792401
-0.0806547
-0.0818048
-0.0826846
-0.0832869
-0.0836186
-0.0836741
-0.0834735
-0.0830213
-0.082315
-0.0815268
0.0141951
0.0114906
0.00883467
0.00605684
0.00318572
0.000213694
-0.00289862
-0.0060645
-0.00937987
-0.0127739
-0.0162328
-0.019792
-0.0234199
-0.0270543
-0.0307344
-0.0344497
-0.0381188
-0.041748
-0.0453357
-0.0488559
-0.0522529
-0.0555054
-0.0586281
-0.0615826
-0.06436
-0.0668877
-0.0692072
-0.0713024
-0.0731494
-0.0747492
-0.0760608
-0.0771197
-0.0779203
-0.0784566
-0.078734
-0.0787483
-0.0785174
-0.0780461
-0.0773319
-0.0765389
0.013666
0.0110856
0.0085488
0.00589778
0.00315828
0.000323953
-0.00264033
-0.00565589
-0.00880903
-0.0120351
-0.0153212
-0.0186988
-0.0221384
-0.0255829
-0.0290676
-0.0325817
-0.0360508
-0.03948
-0.0428668
-0.0461871
-0.0493898
-0.0524542
-0.0553934
-0.0581717
-0.0607803
-0.0631528
-0.0653263
-0.067285
-0.0690077
-0.0704944
-0.0717075
-0.0726792
-0.0734044
-0.073877
-0.0741027
-0.0740774
-0.0738176
-0.073328
-0.0726061
-0.0718082
0.0131712
0.0107091
0.00828616
0.00575607
0.00314201
0.000438735
-0.00238499
-0.00525781
-0.00825716
-0.011324
-0.0144468
-0.0176527
-0.0209145
-0.02418
-0.0274801
-0.0308046
-0.0340852
-0.0373257
-0.0405234
-0.0436553
-0.0466743
-0.0495612
-0.0523271
-0.0549388
-0.0573879
-0.0596133
-0.061648
-0.0634778
-0.065082
-0.0664612
-0.0675808
-0.0684695
-0.0691224
-0.0695345
-0.0697109
-0.0696477
-0.0693605
-0.0688534
-0.0681245
-0.0673217
0.012708
0.0103588
0.00804473
0.00563003
0.00313559
0.000557173
-0.00213297
-0.00487008
-0.00772355
-0.0106398
-0.0136075
-0.0166512
-0.0197449
-0.022841
-0.025967
-0.0291125
-0.0322152
-0.0352779
-0.0382969
-0.0412511
-0.0440969
-0.0468162
-0.0494183
-0.0518726
-0.0541708
-0.0562569
-0.0581605
-0.0598675
-0.0613598
-0.0626369
-0.0636673
-0.0644771
-0.0650617
-0.0654161
-0.0655455
-0.0654466
-0.0651334
-0.06461
-0.0638747
-0.0630673
0.012274
0.0100327
0.00782266
0.0055181
0.00313783
0.000678443
-0.00188462
-0.00449253
-0.00720772
-0.00998086
-0.0128018
-0.0156916
-0.0186263
-0.0215624
-0.0245237
-0.0275003
-0.030435
-0.0333295
-0.0361801
-0.0389666
-0.0416488
-0.0442098
-0.0466572
-0.0489627
-0.0511183
-0.0530725
-0.0548516
-0.0564429
-0.0578287
-0.0590091
-0.0599551
-0.0606901
-0.0612096
-0.0615098
-0.0615948
-0.0614621
-0.0611245
-0.0605861
-0.0598451
-0.0590336
0.0118671
0.00972876
0.00761827
0.00541893
0.00314765
0.000801823
-0.00164017
-0.00412524
-0.00670888
-0.00934636
-0.0120279
-0.014772
-0.0175561
-0.0203404
-0.0231462
-0.0259631
-0.028739
-0.0314748
-0.0341661
-0.0367942
-0.0393221
-0.0417334
-0.0440347
-0.0461997
-0.0482204
-0.0500498
-0.0517114
-0.0531927
-0.0544781
-0.055567
-0.0564329
-0.057097
-0.0575555
-0.0578039
-0.0578473
-0.0576829
-0.0573227
-0.0567705
-0.0560248
-0.05521
0.0114851
0.00944528
0.00743003
0.00533122
0.00316408
0.000926722
-0.00140008
-0.00376793
-0.00622668
-0.00873518
-0.0112843
-0.0138902
-0.0165317
-0.0191724
-0.0218306
-0.0244967
-0.0271224
-0.0297079
-0.032249
-0.0347276
-0.0371094
-0.0393794
-0.0415427
-0.0435748
-0.045468
-0.0471794
-0.0487295
-0.0501074
-0.0512976
-0.0522999
-0.0530903
-0.0536876
-0.054088
-0.0542884
-0.0542925
-0.0540986
-0.0537175
-0.053153
-0.0524038
-0.0515865
0.0111262
0.00918063
0.00725655
0.00525385
0.00318624
0.00105241
-0.00116445
-0.00342068
-0.00576052
-0.0081464
-0.0105697
-0.0130444
-0.0155507
-0.0180551
-0.0205739
-0.023097
-0.0255806
-0.0280243
-0.0304231
-0.0327603
-0.0350043
-0.0371406
-0.0391734
-0.04108
-0.0428528
-0.0444527
-0.0458978
-0.0471772
-0.0482779
-0.0491987
-0.0499176
-0.0504518
-0.0507982
-0.0509529
-0.0509205
-0.0506993
-0.0502992
-0.049724
-0.0489723
-0.0481537
0.0107889
0.00893334
0.00709655
0.00518576
0.0032133
0.00117844
-0.000933668
-0.00308334
-0.00530997
-0.0075792
-0.00988288
-0.012233
-0.014611
-0.0169863
-0.0193726
-0.0217606
-0.0241097
-0.0264189
-0.0286834
-0.030887
-0.0330004
-0.0350105
-0.03692
-0.0387081
-0.0403672
-0.0418617
-0.0432073
-0.0443946
-0.0454103
-0.0462542
-0.0469059
-0.0473809
-0.0476759
-0.0477886
-0.0477221
-0.0474757
-0.0470585
-0.046474
-0.0457212
-0.0449025
0.0104714
0.00870206
0.00694886
0.00512599
0.00324459
0.00130423
-0.000707856
-0.00275584
-0.00487465
-0.00703283
-0.0092227
-0.0114544
-0.0137107
-0.0159633
-0.0182243
-0.0204842
-0.0227058
-0.0248879
-0.0270251
-0.0291024
-0.0310927
-0.0329831
-0.0347762
-0.0364523
-0.0380041
-0.0393989
-0.0406509
-0.0417506
-0.0426868
-0.0434583
-0.0440466
-0.0444659
-0.0447134
-0.0447863
-0.0446886
-0.0444192
-0.0439866
-0.0433948
-0.042642
-0.0418247
0.0101725
0.00848556
0.00681245
0.00507375
0.00327935
0.00142944
-0.000487255
-0.00243813
-0.00445417
-0.00650662
-0.00858815
-0.0107074
-0.012848
-0.0149842
-0.0171261
-0.0192647
-0.0213657
-0.0234272
-0.0254441
-0.0274019
-0.0292755
-0.0310531
-0.0327361
-0.0343063
-0.0357568
-0.0370576
-0.038221
-0.0392388
-0.0400996
-0.0408029
-0.041332
-0.0416991
-0.0419018
-0.0419383
-0.0418116
-0.0415214
-0.0410757
-0.0404776
-0.0397266
-0.0389119
0.00989076
0.00828271
0.00668634
0.00502813
0.00331708
0.00155358
-0.000271996
-0.00213011
-0.0040482
-0.00599991
-0.00797829
-0.00999051
-0.0120213
-0.0140468
-0.0160759
-0.0180994
-0.0200859
-0.0220334
-0.0239363
-0.025781
-0.0275444
-0.0292152
-0.0307942
-0.0322644
-0.0336193
-0.0348314
-0.0359115
-0.0368515
-0.0376419
-0.0382812
-0.0387544
-0.0390727
-0.0392342
-0.0392365
-0.0390835
-0.0387747
-0.0383173
-0.0377152
-0.0369669
-0.0361566
0.00962502
0.00809245
0.00656959
0.00498848
0.00335713
0.00167632
-6.22184e-05
-0.00183173
-0.0036564
-0.00551211
-0.00739223
-0.00930265
-0.011229
-0.0131495
-0.0150713
-0.0169857
-0.0188638
-0.0207031
-0.0224981
-0.0242359
-0.0258949
-0.0274648
-0.0289454
-0.0303213
-0.0315859
-0.0327143
-0.0337158
-0.0345832
-0.0353068
-0.035886
-0.0363071
-0.03658
-0.0367026
-0.036674
-0.0364969
-0.0361714
-0.0357045
-0.0350994
-0.0343557
-0.0335512
0.00937416
0.00791382
0.0064614
0.00495406
0.00339902
0.00179733
0.000141935
-0.0015429
-0.00327847
-0.00504267
-0.00682916
-0.00864271
-0.0104698
-0.0122903
-0.0141104
-0.0159213
-0.0176965
-0.0194333
-0.021126
-0.0227625
-0.0243231
-0.0257974
-0.0271852
-0.028472
-0.0296515
-0.0307009
-0.0316285
-0.032427
-0.0330884
-0.0336113
-0.0339834
-0.0342137
-0.0343011
-0.0342435
-0.0340447
-0.0337046
-0.0332296
-0.0326237
-0.0318854
-0.0310886
0.00913716
0.00774593
0.00636105
0.00492429
0.00344229
0.0019163
0.00034035
-0.00126357
-0.00291412
-0.00459106
-0.00628831
-0.00800964
-0.00974231
-0.0114679
-0.0131911
-0.0149039
-0.0165816
-0.0182211
-0.0198171
-0.0213578
-0.0228249
-0.0242089
-0.0255091
-0.0267117
-0.027811
-0.028786
-0.0296437
-0.0303781
-0.0309806
-0.0314506
-0.0317772
-0.0319683
-0.0320223
-0.0319388
-0.0317202
-0.0313674
-0.0308864
-0.0302804
-0.0295494
-0.0287612
0.00891307
0.00758803
0.00626777
0.00489864
0.00348654
0.00203298
0.00053294
-0.000993639
-0.00256307
-0.00415677
-0.00576893
-0.00740245
-0.00904534
-0.0106805
-0.012312
-0.0139315
-0.0155166
-0.0170641
-0.0185681
-0.0200181
-0.0213971
-0.0226957
-0.023913
-0.0250363
-0.0260599
-0.0269647
-0.0277569
-0.0284303
-0.0289781
-0.0293988
-0.0296827
-0.029837
-0.029861
-0.0297532
-0.0295171
-0.0291534
-0.0286675
-0.0280636
-0.0273402
-0.0265623
0.00870102
0.00743928
0.00618101
0.00487658
0.00353138
0.00214714
0.000719643
-0.000733016
-0.00222503
-0.00373933
-0.00527035
-0.00682025
-0.0083777
-0.00992701
-0.0114711
-0.0130022
-0.0144995
-0.0159594
-0.0173767
-0.0187409
-0.0200361
-0.0212541
-0.0223931
-0.0234415
-0.0243938
-0.0252325
-0.0259629
-0.0265796
-0.0270755
-0.0274501
-0.0276944
-0.0278149
-0.0278105
-0.0276812
-0.0274294
-0.0270563
-0.0265674
-0.0259658
-0.025252
-0.024485
0.00850018
0.00729902
0.00610011
0.00485761
0.0035765
0.00225857
0.000900399
-0.000481594
-0.00189972
-0.00333827
-0.00479193
-0.00626219
-0.00773836
-0.00920586
-0.0106671
-0.0121142
-0.0135281
-0.0149051
-0.01624
-0.0175229
-0.0187392
-0.0198807
-0.0209458
-0.0219236
-0.0228086
-0.023585
-0.0242575
-0.0248204
-0.0252683
-0.0255998
-0.025807
-0.025896
-0.0258663
-0.0257168
-0.0254512
-0.0250702
-0.0245791
-0.0239818
-0.0232775
-0.0225227
0.00830977
0.00716656
0.00602452
0.00484135
0.00362154
0.00236708
0.00107516
-0.000239282
-0.00158688
-0.00295317
-0.00433307
-0.00572747
-0.00712625
-0.00851605
-0.00989831
-0.0112657
-0.0126004
-0.0138988
-0.0151557
-0.0163618
-0.0175032
-0.0185726
-0.0195678
-0.0204789
-0.0213005
-0.0220184
-0.0226361
-0.0231492
-0.0235516
-0.0238428
-0.0240158
-0.0240758
-0.024022
-0.023855
-0.0235769
-0.0231894
-0.0226976
-0.0221046
-0.0214112
-0.0206688
0.0081291
0.00704133
0.00595375
0.00482734
0.00366625
0.00247248
0.00124389
-5.98098e-06
-0.00128625
-0.00258361
-0.00389318
-0.00521531
-0.00654047
-0.00785622
-0.00916359
-0.0104552
-0.0117148
-0.0129387
-0.0141216
-0.0152548
-0.0163256
-0.0173267
-0.0182559
-0.0191041
-0.019866
-0.0205287
-0.0210952
-0.021561
-0.0219213
-0.022175
-0.0223159
-0.0223488
-0.0222737
-0.0220901
-0.0218013
-0.0214086
-0.0209166
-0.0203294
-0.0196465
-0.0189172
0.00795753
0.00692274
0.00588732
0.00481526
0.00371032
0.00257464
0.00140656
0.000218411
-0.000997585
-0.00222919
-0.00347169
-0.00472498
-0.00598006
-0.00722546
-0.00846143
-0.00968116
-0.0108695
-0.0120226
-0.0131355
-0.0141998
-0.0152036
-0.0161402
-0.0170072
-0.0177959
-0.0185017
-0.0191124
-0.0196306
-0.0200525
-0.020373
-0.0205917
-0.020703
-0.0207111
-0.0206158
-0.0204178
-0.0201193
-0.0197223
-0.0192313
-0.0186496
-0.0179783
-0.0172617
0.0077944
0.00681031
0.0058248
0.00480472
0.00375355
0.00267342
0.00156316
0.000434
-0.00072065
-0.00188951
-0.00306805
-0.00425578
-0.00544418
-0.00662249
-0.00779077
-0.00894216
-0.0100628
-0.0111489
-0.0121954
-0.0131944
-0.014135
-0.0150105
-0.0158187
-0.0165515
-0.0172043
-0.0177661
-0.0182392
-0.0186194
-0.018903
-0.0190891
-0.0191727
-0.0191577
-0.0190445
-0.0188329
-0.0185262
-0.0181258
-0.017636
-0.017061
-0.0164003
-0.0156968
0.00763918
0.00670352
0.00576578
0.00479547
0.00379569
0.0027687
0.00171369
0.000640895
-0.000455204
-0.00156421
-0.00268176
-0.00380702
-0.00493192
-0.00604654
-0.00715031
-0.00823691
-0.00929338
-0.0103158
-0.0112995
-0.0122368
-0.0131173
-0.0139352
-0.0146879
-0.0153679
-0.0159708
-0.0164867
-0.0169171
-0.0172588
-0.0175076
-0.0176632
-0.0177212
-0.0176851
-0.0175549
-0.0173316
-0.0170174
-0.0166143
-0.0161266
-0.0155576
-0.0149083
-0.014217
0.00749129
0.00660192
0.00570992
0.00478716
0.00383658
0.00286038
0.00185814
0.000839204
-0.000201018
-0.00125293
-0.00231232
-0.00337807
-0.00444255
-0.00549647
-0.0065391
-0.0075641
-0.00855962
-0.00952182
-0.0104458
-0.0113246
-0.0121486
-0.012912
-0.0136123
-0.0142425
-0.0147985
-0.015271
-0.0156616
-0.0159667
-0.0161834
-0.0163107
-0.0163447
-0.0162889
-0.0161437
-0.0159093
-0.0155887
-0.0151836
-0.014698
-0.0141357
-0.0134967
-0.0128174
0.00735021
0.00650509
0.00565683
0.00477958
0.00387599
0.00294836
0.00199653
0.00102904
4.2132e-05
-0.000955325
-0.00195927
-0.00296833
-0.00397528
-0.00497158
-0.00595595
-0.00692255
-0.00786025
-0.00876518
-0.00963284
-0.0104563
-0.0112267
-0.0119386
-0.0125895
-0.0131728
-0.0136845
-0.0141164
-0.0144693
-0.0147407
-0.0149269
-0.0150277
-0.0150398
-0.0149659
-0.0148064
-0.0145625
-0.0142361
-0.0138294
-0.0133464
-0.0127901
-0.0121617
-0.0114934
0.00721547
0.00641261
0.0056062
0.00477242
0.0039138
0.00303257
0.00212887
0.00121052
0.000274474
-0.000671059
-0.00162215
-0.00257721
-0.00352946
-0.00447082
-0.0054
-0.00631107
-0.00719388
-0.00804466
-0.00885877
-0.00962983
-0.0103497
-0.0110129
-0.0116172
-0.0121563
-0.0126264
-0.01302
-0.0133379
-0.0135771
-0.0137353
-0.0138116
-0.0138029
-0.0137123
-0.0135403
-0.0132871
-0.0129558
-0.0125481
-0.0120675
-0.0115177
-0.0108986
-0.010241
0.00708661
0.00632411
0.0055577
0.0047655
0.00394981
0.00311293
0.0022552
0.00138376
0.000496231
-0.000399795
-0.00130052
-0.00220418
-0.00310436
-0.00399358
-0.00487014
-0.00572858
-0.00655936
-0.00735865
-0.00812222
-0.00884379
-0.00951569
-0.0101331
-0.0106933
-0.0111907
-0.0116217
-0.0119793
-0.0122641
-0.0124739
-0.0126054
-0.0126587
-0.0126312
-0.0125252
-0.0123411
-0.0120802
-0.0117444
-0.0113359
-0.0108581
-0.0103139
-0.00970436
-0.00905644
0.00696321
0.00623924
0.00551107
0.00475857
0.00398394
0.0031894
0.00237554
0.00154888
0.000707615
-0.00014122
-0.000993954
-0.00184869
-0.00269936
-0.00353892
-0.00436563
-0.00517405
-0.00595543
-0.00670607
-0.00742162
-0.00809634
-0.00872311
-0.00929709
-0.00981583
-0.010274
-0.0106682
-0.010992
-0.011246
-0.0114276
-0.0115348
-0.0115668
-0.0115215
-0.0114012
-0.0112066
-0.0109382
-0.0105987
-0.0101897
-0.00971453
-0.00917643
-0.0085752
-0.00793661
0.00684486
0.00615766
0.00546602
0.00475146
0.00401601
0.00326193
0.00248992
0.001706
0.000908837
0.000104971
-0.000702054
-0.00151023
-0.00231379
-0.00310623
-0.00388547
-0.0046465
-0.00538106
-0.00608547
-0.00675573
-0.00738619
-0.00797012
-0.00850324
-0.00898286
-0.00940412
-0.00976366
-0.0100558
-0.0102808
-0.0104365
-0.0105205
-0.0105327
-0.0104712
-0.0103379
-0.0101332
-0.00985851
-0.00951555
-0.00910642
-0.00863419
-0.00810139
-0.00750875
-0.00687873
0.00673119
0.00607906
0.00542231
0.00474396
0.00404594
0.00333046
0.00259838
0.00185523
0.0011001
0.000339078
-0.00042442
-0.00118829
-0.0019471
-0.00269465
-0.00342896
-0.00414496
-0.00483512
-0.00549587
-0.00612312
-0.00671168
-0.00725538
-0.00774982
-0.00819259
-0.00857909
-0.00890614