/*--------------------------------*- C++ -*----------------------------------*\
| =========                 |                                                 |
| \\      /  F ield         | OpenFOAM: The Open Source CFD Toolbox           |
|  \\    /   O peration     | Version:  3.0.1                                 |
|   \\  /    A nd           | Web:      www.OpenFOAM.org                      |
|    \\/     M anipulation  |                                                 |
\*---------------------------------------------------------------------------*/
FoamFile
{
    version     2.0;
    format      ascii;
    class       surfaceScalarField;
    location    "500";
    object      phi;
}
// * * * * * * * * * * * * * * * * * * * * * * * * * * * * * * * * * * * * * //

dimensions      [0 3 -1 0 0 0 0];

internalField   nonuniform List<scalar> 
115520
(
0.0135197
-0.00186911
-0.0116505
0.014621
-0.00110131
0.0147614
-0.00014041
0.0143811
0.000380248
0.0137413
0.000639828
0.0130001
0.000741183
0.0123378
0.000662299
0.0117216
0.00061627
0.0112518
0.000469825
0.0109308
0.000320978
0.010713
0.000217757
0.0106082
0.000104875
0.0106181
-9.95681e-06
0.010687
-6.88994e-05
0.0107954
-0.000108352
0.0109443
-0.000148959
0.011122
-0.000177679
0.0113094
-0.000187407
0.0114976
-0.000188174
0.0116873
-0.000189736
0.0118819
-0.000194512
0.012071
-0.000189113
0.0122505
-0.000179557
0.0124175
-0.000166953
0.0125811
-0.000163603
0.0127365
-0.000155375
0.012881
-0.000144498
0.013013
-0.000131977
0.013131
-0.000118016
0.0132423
-0.000111288
0.0133428
-0.000100489
0.0134313
-8.85315e-05
0.0135074
-7.61317e-05
0.0135709
-6.34662e-05
0.0136112
-4.03357e-05
0.0136001
1.1148e-05
0.0135628
3.73457e-05
0.0135273
3.55136e-05
0.0135232
4.01598e-06
-5.0407e-05
0.0135736
0.00878983
-0.00300823
-0.00765072
0.00980761
-0.00211909
0.0107595
-0.00109227
0.0116032
-0.00046347
0.0122916
-4.85524e-05
0.0127948
0.000237974
0.0131469
0.000310228
0.0133433
0.000419864
0.0134565
0.000356596
0.0135155
0.000261946
0.0135174
0.000215938
0.0135083
0.00011392
0.0135284
-3.00231e-05
0.0135505
-9.09829e-05
0.0135823
-0.000140168
0.0136536
-0.00022024
0.0137496
-0.000273702
0.0138554
-0.00029318
0.0139689
-0.000301667
0.0141002
-0.000321095
0.0142462
-0.000340438
0.014392
-0.000335004
0.0145358
-0.000323269
0.0146748
-0.000306027
0.0148231
-0.000311912
0.0149655
-0.000297756
0.0150999
-0.000278895
0.015225
-0.000257057
0.0153394
-0.000232443
0.0154534
-0.000225285
0.0155565
-0.000203571
0.0156478
-0.000179798
0.0157262
-0.000154575
0.0157907
-0.000127888
0.0158439
-9.35862e-05
0.015882
-2.68869e-05
0.0159097
9.61782e-06
0.0159334
1.18598e-05
0.0159597
-2.23256e-05
-9.3899e-05
0.0160032
0.00818365
-0.00405468
-0.0071372
0.00913711
-0.00307254
0.0100154
-0.00197053
0.010768
-0.00121606
0.0114332
-0.000713801
0.0120161
-0.000344896
0.0124956
-0.000169329
0.0129024
1.31534e-05
0.0132241
3.4879e-05
0.01348
6.01226e-06
0.01368
1.59477e-05
0.0138418
-4.78634e-05
0.0139895
-0.0001777
0.0141194
-0.00022095
0.0142407
-0.000261432
0.0143764
-0.000355906
0.0145211
-0.000418459
0.0146678
-0.000439813
0.0148168
-0.000450663
0.0149761
-0.000480446
0.0151431
-0.000507407
0.0153078
-0.000499735
0.0154694
-0.00048482
0.0156263
-0.000463
0.0157875
-0.000473085
0.0159415
-0.000451729
0.016087
-0.000424439
0.0162235
-0.000393509
0.01635
-0.000358969
0.0164725
-0.000347778
0.0165834
-0.000314411
0.016682
-0.000278451
0.016768
-0.000240542
0.0168406
-0.000200521
0.0169017
-0.000154661
0.0169481
-7.33382e-05
0.0169807
-2.29401e-05
0.0170037
-1.11605e-05
0.0170184
-3.69992e-05
-0.000100092
0.0170246
0.00742375
-0.00494665
-0.00653178
0.00829631
-0.0039451
0.00915177
-0.00282599
0.00993587
-0.00200016
0.0106535
-0.00143143
0.0113004
-0.000991775
0.0118625
-0.000731421
0.0123673
-0.000491692
0.0128021
-0.00039988
0.0131795
-0.000371375
0.0135074
-0.000312007
0.0137924
-0.00033287
0.0140487
-0.000433963
0.0142779
-0.000450153
0.0144855
-0.000469016
0.014688
-0.00055838
0.0148859
-0.000616386
0.0150768
-0.0006307
0.0152626
-0.000636473
0.0154511
-0.000668937
0.0156416
-0.000697945
0.0158272
-0.00068533
0.0160074
-0.000665016
0.0161814
-0.00063703
0.0163571
-0.000648711
0.0165248
-0.000619442
0.0166834
-0.00058303
0.0168322
-0.000542314
0.0169705
-0.00049728
0.0171038
-0.000481072
0.0172252
-0.0004358
0.0173341
-0.000387346
0.01743
-0.00033643
0.0175123
-0.000282893
0.0175836
-0.000225918
0.0176418
-0.000131538
0.0176861
-6.72441e-05
0.0177181
-4.3134e-05
0.0177387
-5.76011e-05
-0.000108909
0.0177475
0.00702172
-0.00576869
-0.00619968
0.00784081
-0.00476419
0.00866513
-0.00365031
0.00945128
-0.00278632
0.0101978
-0.002178
0.0108943
-0.00168824
0.0115162
-0.0013533
0.0120919
-0.00106738
0.0126006
-0.000908633
0.0130531
-0.000823892
0.01346
-0.000718826
0.0138216
-0.000694488
0.0141465
-0.000758892
0.0144417
-0.000745358
0.0147111
-0.000738401
0.0149653
-0.000812559
0.0152074
-0.00085845
0.0154373
-0.000860619
0.0156573
-0.000856501
0.0158739
-0.000885542
0.0160876
-0.000911635
0.0162938
-0.000891516
0.0164925
-0.000863684
0.0166833
-0.00082791
0.0168726
-0.00083797
0.0170528
-0.000799666
0.017223
-0.000753224
0.0173827
-0.000701979
0.0175313
-0.000645894
0.0176731
-0.000622827
0.0178023
-0.000565078
0.0179186
-0.000503601
0.0180214
-0.00043929
0.0181106
-0.000372019
0.0181879
-0.000303228
0.0182519
-0.000195558
0.0183014
-0.000116776
0.0183368
-7.84801e-05
0.0183579
-7.86963e-05
-0.00011511
0.0183641
0.00672904
-0.00654734
-0.00595039
0.00751195
-0.0055471
0.00830752
-0.00444588
0.00908366
-0.00356246
0.00983949
-0.00293382
0.0105643
-0.0024131
0.0112303
-0.00201925
0.0118619
-0.00169897
0.0124334
-0.00148015
0.0129521
-0.00134255
0.0134282
-0.00119498
0.0138582
-0.00112442
0.0142462
-0.00114695
0.0146021
-0.00110128
0.0149287
-0.00106497
0.0152323
-0.00111617
0.0155176
-0.00114378
0.0157863
-0.00112931
0.0160407
-0.00111085
0.0162861
-0.00113093
0.016524
-0.00114951
0.0167516
-0.00111917
0.0169694
-0.00108145
0.0171773
-0.00103585
0.0173807
-0.00104135
0.0175737
-0.000992694
0.0177556
-0.000935127
0.017926
-0.000872357
0.0180844
-0.000804318
0.0182345
-0.000772938
0.0183715
-0.000702054
0.0184949
-0.000626946
0.0186042
-0.000548657
0.0186993
-0.000467103
0.0187819
-0.000385769
0.0188506
-0.000264292
0.0189043
-0.000170421
0.0189427
-0.000116951
0.0189658
-0.000101788
-0.000122386
0.0189731
0.00652911
-0.00730392
-0.00577252
0.00729152
-0.00630951
0.00806754
-0.0052219
0.00883275
-0.00432767
0.00958812
-0.00368919
0.0103255
-0.00315051
0.0110181
-0.00271187
0.0116878
-0.00236858
0.0123066
-0.00209894
0.0128784
-0.00191442
0.0134128
-0.00172935
0.0139024
-0.00161402
0.0143477
-0.00159223
0.0147599
-0.00151351
0.0151407
-0.00144577
0.0154926
-0.00146812
0.0158214
-0.00147253
0.0161298
-0.00143772
0.01642
-0.00140109
0.0166962
-0.00140712
0.0169605
-0.00141377
0.0172118
-0.00137044
0.0174506
-0.00132031
0.0176774
-0.00126264
0.0178965
-0.00126043
0.0181037
-0.00119985
0.0182983
-0.00112982
0.0184803
-0.00105431
0.0186492
-0.000973228
0.0188081
-0.000931865
0.0189531
-0.000846997
0.0190836
-0.000757471
0.0191994
-0.000664462
0.0193002
-0.000567911
0.0193875
-0.000473071
0.0194602
-0.000336997
0.0195171
-0.000227271
0.0195578
-0.00015768
0.0195821
-0.000126075
-0.000129836
0.0195896
0.00638909
-0.00805156
-0.00564145
0.00714253
-0.00706295
0.0079084
-0.00598778
0.00866727
-0.00508654
0.00942124
-0.00444316
0.0101647
-0.00389392
0.0108738
-0.003421
0.0115683
-0.00306315
0.0122212
-0.00275184
0.0128341
-0.0025273
0.0134153
-0.00231052
0.0139552
-0.00215391
0.014451
-0.00208804
0.0149144
-0.00197689
0.0153458
-0.00187717
0.0157444
-0.00186677
0.0161163
-0.0018444
0.016465
-0.00178641
0.0167924
-0.00172845
0.0171013
-0.00171601
0.0173941
-0.00170663
0.0176713
-0.00164759
0.0179334
-0.00158251
0.0181812
-0.00151041
0.018418
-0.00149724
0.0186411
-0.00142295
0.0188502
-0.00133893
0.0190452
-0.00124928
0.0192258
-0.00115385
0.0193947
-0.00110071
0.0195485
-0.00100085
0.019687
-0.000895957
0.0198099
-0.000787317
0.0199169
-0.000674888
0.0200093
-0.000565465
0.0200862
-0.000413888
0.0201464
-0.000287472
0.0201895
-0.00020086
0.0202154
-0.000151906
-0.000137989
0.0202235
0.00629298
-0.00879941
-0.00554513
0.00704598
-0.00781595
0.00780964
-0.00675144
0.00856785
-0.00584475
0.00932316
-0.00519847
0.0100717
-0.00464244
0.010793
-0.00414234
0.0115052
-0.00377531
0.0121832
-0.0034299
0.0128276
-0.00317169
0.0134458
-0.00292865
0.014027
-0.00273511
0.0145661
-0.00262718
0.0150745
-0.00248532
0.0155517
-0.00235433
0.0159941
-0.00230915
0.0164075
-0.00225778
0.0167958
-0.00217471
0.0171604
-0.00209308
0.0175029
-0.00205851
0.0178258
-0.00202955
0.0181305
-0.00195231
0.0184179
-0.00186985
0.0186885
-0.00178103
0.0189449
-0.00175368
0.0191858
-0.00166382
0.019411
-0.00156413
0.0196205
-0.0014588
0.0198142
-0.00134758
0.0199943
-0.00128075
0.0201581
-0.00116472
0.0203056
-0.00104337
0.0204363
-0.000918044
0.0205501
-0.000788719
0.0206482
-0.00066352
0.0207297
-0.000495425
0.0207936
-0.000351399
0.0208396
-0.000246815
0.0208672
-0.00017956
-0.000147058
0.0208763
0.00622998
-0.00955405
-0.00547534
0.00698892
-0.00857489
0.00775671
-0.00751923
0.00851956
-0.00660759
0.00928004
-0.00595896
0.0100354
-0.00539783
0.0107682
-0.00487516
0.0114949
-0.00450199
0.0121932
-0.00412816
0.0128629
-0.0038414
0.0135108
-0.00357656
0.0141261
-0.00335035
0.0147021
-0.00320325
0.0152497
-0.00303288
0.0157675
-0.00287211
0.0162499
-0.00279156
0.0167022
-0.00271012
0.0171284
-0.00260089
0.0175294
-0.00249404
0.0179054
-0.00243455
0.018259
-0.00238311
0.0185922
-0.00228552
0.0189058
-0.00218351
0.0192006
-0.0020758
0.0194782
-0.00203124
0.0197383
-0.00192393
0.019981
-0.00180687
0.0202064
-0.00168423
0.0204146
-0.00155569
0.020607
-0.00147317
0.020782
-0.0013397
0.0209393
-0.00120068
0.0210788
-0.00105752
0.0212002
-0.000910177
0.0213046
-0.000767919
0.0213914
-0.000582204
0.0214596
-0.000419567
0.0215088
-0.000296002
0.0215387
-0.000209447
-0.000157391
0.021549
0.00619297
-0.0103205
-0.00542655
0.0069628
-0.00934473
0.00773978
-0.0082962
0.00851183
-0.00737965
0.00928136
-0.00672848
0.0100463
-0.00616279
0.0107917
-0.00562052
0.0115324
-0.00524269
0.0122487
-0.00484447
0.0129403
-0.00453303
0.0136134
-0.0042497
0.0142576
-0.00399451
0.0148656
-0.00381126
0.0154474
-0.00361462
0.0160011
-0.00342582
0.0165198
-0.00331028
0.0170082
-0.00319852
0.01747
-0.00306269
0.0179057
-0.0029297
0.0183144
-0.00284332
0.0186984
-0.00276713
0.0190603
-0.00264742
0.0194008
-0.00252399
0.0197205
-0.00239548
0.0200202
-0.00233093
0.0203006
-0.00220437
0.020562
-0.00206824
0.0208044
-0.00192666
0.021028
-0.00177925
0.0212339
-0.00167904
0.0214209
-0.00152678
0.0215891
-0.00136881
0.0217381
-0.00120656
0.0218679
-0.00103999
0.0219793
-0.000879324
0.0220719
-0.000674812
0.0221449
-0.000492494
0.0221977
-0.000348873
0.0222303
-0.000241955
-0.000169308
0.0222422
0.006177
-0.0111026
-0.00539485
0.00696169
-0.0101294
0.00775198
-0.0090865
0.00853713
-0.00816479
0.00931925
-0.0075106
0.0100967
-0.00694028
0.0108565
-0.00638029
0.0116121
-0.00599828
0.0123461
-0.00557844
0.0130581
-0.00524506
0.0137539
-0.00494553
0.0144238
-0.00466433
0.0150602
-0.00444771
0.0156724
-0.00422677
0.0162582
-0.00401168
0.01681
-0.00386205
0.0173317
-0.00372023
0.0178268
-0.00355778
0.0182953
-0.0033982
0.0187356
-0.00328359
0.0191494
-0.00318096
0.0195397
-0.00303771
0.019907
-0.00289128
0.0202518
-0.00274031
0.0205742
-0.00265333
0.0208757
-0.00250581
0.0211564
-0.00234901
0.0214167
-0.0021869
0.0216565
-0.00201906
0.0218766
-0.0018992
0.0220766
-0.00172676
0.0222563
-0.0015485
0.0224156
-0.00136587
0.0225544
-0.00117881
0.0226734
-0.000998327
0.0227724
-0.000773779
0.0228505
-0.000570644
0.0229075
-0.000405835
0.022943
-0.000277434
-0.000183094
0.0229568
0.00617854
-0.0119038
-0.0053774
0.00698137
-0.0109323
0.00778844
-0.00989356
0.00859001
-0.00896637
0.00938791
-0.0083085
0.0101808
-0.00773316
0.0109571
-0.00715664
0.0117292
-0.00677031
0.0124814
-0.0063307
0.0132136
-0.00597727
0.0139311
-0.005663
0.0146248
-0.00535802
0.0152875
-0.00511041
0.0159275
-0.00486677
0.0165427
-0.00462689
0.0171249
-0.00444428
0.0176776
-0.00427291
0.0182038
-0.00408402
0.0187033
-0.00389771
0.0191738
-0.00375402
0.0196165
-0.00362372
0.0200346
-0.0034558
0.0204284
-0.00328508
0.0207983
-0.00311022
0.0211437
-0.00299868
0.0214665
-0.00282866
0.0217671
-0.00264964
0.0220457
-0.00246548
0.0223023
-0.00227569
0.0225374
-0.00213428
0.0227509
-0.00194026
0.0229428
-0.00174035
0.0231129
-0.001536
0.0232612
-0.00132714
0.0233883
-0.00112542
0.0234941
-0.000879547
0.0235779
-0.000654409
0.0236393
-0.000467228
0.023678
-0.000316173
-0.000198983
0.0236939
0.00619501
-0.0127267
-0.00537211
0.00701882
-0.0117561
0.00784561
-0.0107204
0.00866651
-0.00978727
0.00948303
-0.00912502
0.010294
-0.0085441
0.0110891
-0.00795175
0.0118794
-0.00756063
0.0126512
-0.00710244
0.0134041
-0.00673021
0.0141431
-0.00640201
0.0148599
-0.00607486
0.0155477
-0.00579815
0.0162139
-0.00553301
0.0168566
-0.00526954
0.0174674
-0.00505507
0.0180492
-0.00485474
0.0186049
-0.00463968
0.0191338
-0.00442663
0.0196331
-0.00425334
0.0201039
-0.00409449
0.0205491
-0.00390099
0.0209689
-0.00370489
0.0213636
-0.00350492
0.0217319
-0.00336701
0.0220763
-0.00317304
0.0223971
-0.00297038
0.0226943
-0.00276271
0.0229681
-0.00254952
0.0232186
-0.00238475
0.0234461
-0.00216775
0.0236506
-0.00194482
0.0238319
-0.00171739
0.0239902
-0.00148541
0.0241258
-0.00126098
0.0242387
-0.000992474
0.0243284
-0.000744101
0.0243945
-0.000533321
0.0244367
-0.000358395
-0.000217147
0.0244549
0.0062245
-0.0135738
-0.00537738
0.00707178
-0.0126033
0.00792092
-0.0115695
0.00876373
-0.0106301
0.00960143
-0.00996272
0.0104329
-0.00937557
0.011249
-0.0087678
0.0120595
-0.00837119
0.0128522
-0.00789516
0.0136269
-0.00750486
0.014388
-0.00716311
0.015128
-0.00681486
0.0158403
-0.00651052
0.016532
-0.00622468
0.017201
-0.00593851
0.0178391
-0.00569318
0.0184488
-0.00546443
0.0190326
-0.00522346
0.0195897
-0.00498372
0.0201168
-0.00478051
0.0206148
-0.00459244
0.0210864
-0.00437261
0.0215317
-0.00415022
0.0219509
-0.00392406
0.0223421
-0.00375821
0.022708
-0.003539
0.023049
-0.00331134
0.0233651
-0.00307879
0.0236563
-0.00284079
0.0239225
-0.00265095
0.0241643
-0.00240957
0.0243818
-0.00216225
0.0245748
-0.00191038
0.0247433
-0.00165392
0.0248876
-0.00140534
0.025008
-0.00111284
0.0251038
-0.000839959
0.0251748
-0.000604315
0.0252207
-0.000404258
-0.000237703
0.0252413
0.00626558
-0.0144474
-0.00539199
0.0071386
-0.0134764
0.00801244
-0.0124433
0.0088795
-0.0114971
0.00974073
-0.0108239
0.010595
-0.0102299
0.0114341
-0.00960686
0.0122669
-0.00920395
0.0130822
-0.00871047
0.0138798
-0.00830251
0.0146639
-0.00794722
0.0154276
-0.00757854
0.0161647
-0.00724765
0.0168816
-0.0069416
0.0175764
-0.00663328
0.0182411
-0.0063579
0.0188779
-0.00610118
0.0194889
-0.00583446
0.0200732
-0.00556804
0.0206274
-0.00533471
0.0211519
-0.00511691
0.0216493
-0.0048701
0.0221197
-0.00462059
0.0225629
-0.00436728
0.0229769
-0.00417214
0.0233643
-0.00392646
0.0237255
-0.00367255
0.0240605
-0.00341379
0.0243694
-0.00314964
0.0246515
-0.0029331
0.0249079
-0.00266597
0.0251386
-0.00239289
0.0253434
-0.00211522
0.0255224
-0.00183291
0.0256758
-0.00155871
0.0258038
-0.00124085
0.025906
-0.000942157
0.025982
-0.000680346
0.0260316
-0.000453864
-0.000260713
0.0260546
0.00631713
-0.0153495
-0.00541499
0.00721801
-0.0143773
0.00811874
-0.0133441
0.00901222
-0.0123906
0.00989915
-0.0117109
0.0107785
-0.0111092
0.0116425
-0.0104709
0.0124994
-0.0100608
0.013339
-0.00955006
0.0141611
-0.00912456
0.0149693
-0.00875551
0.0157576
-0.00836675
0.01652
-0.00801005
0.0172623
-0.00768398
0.0179829
-0.00735381
0.018674
-0.00704899
0.0193374
-0.0067646
0.0199751
-0.00647217
0.0205861
-0.00617904
0.0211668
-0.00591538
0.0217173
-0.00566742
0.0222402
-0.005393
0.0227352
-0.00511562
0.0232022
-0.0048343
0.0236388
-0.00460867
0.0240477
-0.00433537
0.0244291
-0.004054
0.0247831
-0.00376777
0.0251096
-0.00347615
0.0254079
-0.00323137
0.0256791
-0.00293714
0.0259231
-0.00263693
0.02614
-0.00233209
0.0263296
-0.00202256
0.0264922
-0.00172128
0.026628
-0.00137665
0.0267366
-0.00105082
0.0268178
-0.000761502
0.0268712
-0.000507264
-0.000286191
0.0268967
0.00637832
-0.0162822
-0.00544564
0.00730906
-0.015308
0.00823875
-0.0142737
0.0091607
-0.0133126
0.0100754
-0.0126256
0.0109817
-0.0120155
0.0118727
-0.0113619
0.0127557
-0.0109438
0.0136212
-0.0104156
0.0144692
-0.00997254
0.015303
-0.0095893
0.0161168
-0.00918056
0.0169053
-0.00879852
0.0176737
-0.00845239
0.0184203
-0.00810041
0.0191379
-0.00776657
0.0198279
-0.00745465
0.0204922
-0.00713644
0.0211296
-0.00681643
0.0217365
-0.00652225
0.0223128
-0.0062437
0.0228608
-0.00594107
0.0233803
-0.0056351
0.0238709
-0.00532491
0.0243299
-0.0050677
0.0247603
-0.00476569
0.025162
-0.00445569
0.025535
-0.00414076
0.0258792
-0.00382041
0.0261938
-0.00354591
0.0264798
-0.00322322
0.0267374
-0.00289452
0.0269665
-0.00256113
0.0271669
-0.00222299
0.0273388
-0.00189317
0.0274825
-0.00152037
0.0275977
-0.00116601
0.027684
-0.000847826
0.0277412
-0.000564466
-0.000314112
0.0277691
0.0064485
-0.0172473
-0.00548337
0.00741104
-0.0162706
0.00837166
-0.0152343
0.00932406
-0.014265
0.0102685
-0.01357
0.0112039
-0.0129509
0.0121237
-0.0122817
0.0130345
-0.0118546
0.0139278
-0.0113089
0.0148032
-0.010848
0.0156639
-0.01045
0.0165046
-0.0100212
0.0173201
-0.00961404
0.0181153
-0.00924762
0.0188886
-0.00887369
0.0196331
-0.00851105
0.02035
-0.00817158
0.021041
-0.00782737
0.0217048
-0.00748024
0.0223378
-0.00715527
0.0229398
-0.00684569
0.0235129
-0.00651422
0.0240567
-0.00617892
0.0245709
-0.00583903
0.0250524
-0.00554924
0.0255041
-0.00521744
0.0259261
-0.00487767
0.0263182
-0.00453284
0.0266803
-0.00418248
0.0270112
-0.00387683
0.0273123
-0.00352435
0.0275836
-0.00316579
0.0278249
-0.00280245
0.0280362
-0.00243432
0.0282175
-0.00207447
0.0283692
-0.00167206
0.028491
-0.00128778
0.0285825
-0.000939329
0.0286435
-0.000625451
-0.00034442
0.0286738
0.00652718
-0.0182468
-0.00552771
0.00752342
-0.0172668
0.0085169
-0.0162278
0.00950167
-0.0152497
0.0104778
-0.0145461
0.0114441
-0.0139172
0.0123945
-0.0132322
0.013335
-0.0127951
0.0142577
-0.0122316
0.0151623
-0.0117525
0.0160514
-0.0113392
0.0169202
-0.01089
0.0177639
-0.0104578
0.018587
-0.0100707
0.0193877
-0.00967444
0.0201597
-0.00928306
0.020904
-0.00891589
0.021622
-0.00854533
0.0223124
-0.00817069
0.0229718
-0.0078146
0.0235996
-0.00747351
0.0241979
-0.00711252
0.0247661
-0.00674713
0.0253038
-0.0063767
0.0258079
-0.00605334
0.0262811
-0.00569069
0.0267235
-0.00532001
0.0271347
-0.00494407
0.0275147
-0.00456245
0.0278621
-0.00422427
0.0281784
-0.00384064
0.0284635
-0.00345084
0.0287172
-0.00305617
0.0289395
-0.00265662
0.0291303
-0.00226527
0.02929
-0.00183178
0.0294184
-0.00141616
0.029515
-0.001036
0.0295798
-0.000690173
-0.000377038
0.0296124
0.00661398
-0.0192825
-0.00557831
0.00764579
-0.0182986
0.00867405
-0.0172561
0.00969307
-0.0162688
0.0107027
-0.0155558
0.0117018
-0.0149163
0.0126848
-0.0142151
0.0136568
-0.0137671
0.0146106
-0.0131855
0.0155459
-0.0126878
0.016465
-0.0122583
0.0173633
-0.0117883
0.0182365
-0.0113309
0.0190884
-0.0109226
0.0199176
-0.0105036
0.020718
-0.0100834
0.0214903
-0.00968822
0.0222358
-0.00929086
0.0229534
-0.00888822
0.0236393
-0.00850059
0.0242933
-0.00812744
0.024917
-0.0077362
0.0255098
-0.00733992
0.0260711
-0.00693806
0.026598
-0.00658019
0.0270929
-0.0061856
0.0275557
-0.00578287
0.0279863
-0.00537461
0.0283843
-0.00496047
0.0287484
-0.00458839
0.02908
-0.00417223
0.029379
-0.00374981
0.0296452
-0.00332239
0.0298786
-0.00288999
0.0300789
-0.00246563
0.0302467
-0.00199958
0.0303817
-0.00155114
0.0304835
-0.00113782
0.0305519
-0.000758574
-0.000411871
0.0305868
0.00670864
-0.0203562
-0.0056349
0.0077779
-0.0193679
0.00884281
-0.018321
0.00989797
-0.0173239
0.0109431
-0.0166009
0.0119769
-0.0159501
0.0129941
-0.0152323
0.0139994
-0.0147725
0.0149861
-0.0141722
0.0159537
-0.0136554
0.0169044
-0.013209
0.0178338
-0.0127177
0.0187377
-0.0122348
0.0196198
-0.0118047
0.0204785
-0.0113624
0.0213081
-0.010913
0.0221093
-0.0104894
0.0228831
-0.0100647
0.0236283
-0.00963343
0.0243414
-0.00921374
0.0250219
-0.00880792
0.0256714
-0.00838564
0.026289
-0.0079576
0.0268744
-0.00752338
0.0274242
-0.00713005
0.027941
-0.00670241
0.0284246
-0.00626645
0.0288747
-0.00582465
0.0292909
-0.00537671
0.0296719
-0.00496935
0.0300189
-0.0045193
0.030332
-0.00406284
0.0306108
-0.00360123
0.0308553
-0.00313451
0.0310653
-0.00267564
0.0312412
-0.00217551
0.0313828
-0.00169275
0.0314898
-0.00124476
0.0315618
-0.000830588
-0.000448813
0.0315987
0.00681097
-0.0214699
-0.00569726
0.00791955
-0.0204764
0.00902303
-0.0194245
0.0101162
-0.0184171
0.0111986
-0.0176833
0.012269
-0.0170205
0.0133223
-0.0162857
0.0143628
-0.015813
0.0153841
-0.0151935
0.0163857
-0.014657
0.0173695
-0.0141928
0.0183315
-0.0136796
0.0192675
-0.0131709
0.0201811
-0.0127182
0.0210705
-0.0122519
0.0219305
-0.011773
0.0227615
-0.0113204
0.0235644
-0.0108676
0.024338
-0.0104071
0.025079
-0.00995469
0.0257865
-0.00951551
0.0264622
-0.00906132
0.0271052
-0.00860061
0.0277149
-0.00813306
0.0282881
-0.00770326
0.0288271
-0.00724143
0.0293317
-0.00677105
0.0298015
-0.00629445
0.0302362
-0.0058114
0.0306343
-0.0053674
0.030997
-0.00488203
0.0313243
-0.0043901
0.0316159
-0.00389282
0.0318716
-0.00339029
0.0320914
-0.00289535
0.0322754
-0.0023596
0.0324237
-0.00184099
0.0325357
-0.00135678
0.0326113
-0.00090614
-0.000487752
0.0326502
0.00692083
-0.0226255
-0.00576525
0.00807066
-0.0216263
0.00921462
-0.0205684
0.0103477
-0.0195502
0.0114693
-0.0188049
0.0125781
-0.0181293
0.0136694
-0.0173769
0.0147468
-0.0168904
0.0158045
-0.0162512
0.0168419
-0.0156943
0.0178605
-0.0152114
0.0188565
-0.0146757
0.0198263
-0.0141407
0.0207726
-0.0136645
0.0216941
-0.0131733
0.0225855
-0.0126644
0.0234474
-0.0121823
0.0242804
-0.0117005
0.0250833
-0.0112099
0.0258528
-0.0107242
0.0265882
-0.0102509
0.0272907
-0.00976386
0.0279596
-0.00926949
0.0285941
-0.00876756
0.0291911
-0.00830027
0.0297528
-0.00780307
0.0302787
-0.00729702
0.0307686
-0.00678433
0.031222
-0.00626483
0.0316374
-0.00578278
0.032016
-0.00526067
0.0323577
-0.00473177
0.0326622
-0.00419732
0.0329294
-0.00365745
0.0331589
-0.00312488
0.0333512
-0.00255192
0.0335061
-0.00199587
0.0336232
-0.00147385
0.0337022
-0.000985157
-0.000528571
0.033743
0.00703816
-0.0238249
-0.00583876
0.00823117
-0.0228193
0.00941757
-0.0217548
0.0105925
-0.0207252
0.0117553
-0.0199676
0.0129044
-0.0192784
0.0140355
-0.018508
0.0151517
-0.0180067
0.0162476
-0.0173471
0.0173224
-0.016769
0.0183775
-0.0162665
0.0194093
-0.0157075
0.0204142
-0.0151455
0.0213948
-0.0146451
0.0223496
-0.0141282
0.0232739
-0.0135886
0.0241677
-0.0130761
0.0250318
-0.0125646
0.025865
-0.0120431
0.0266639
-0.0115232
0.0274279
-0.0110149
0.028158
-0.010494
0.0288534
-0.00996488
0.0295133
-0.00942747
0.0301347
-0.00892161
0.0307194
-0.00838781
0.0312672
-0.00784479
0.0317775
-0.00729467
0.03225
-0.00673733
0.032683
-0.00621582
0.0330778
-0.00565546
0.0334342
-0.00508809
0.0337518
-0.00451493
0.0340305
-0.00393615
0.0342699
-0.00336433
0.0344705
-0.00275252
0.034632
-0.00215741
0.0347542
-0.00159595
0.0348366
-0.00106757
-0.000571152
0.0348791
0.00716293
-0.0250701
-0.00591772
0.00840113
-0.0240575
0.00963195
-0.0229857
0.0108507
-0.021944
0.0120566
-0.0211734
0.013248
-0.0204698
0.0144207
-0.0196807
0.0155777
-0.0191636
0.0167136
-0.0184829
0.0178276
-0.017883
0.0189209
-0.0173599
0.0199901
-0.0167767
0.0210317
-0.0161871
0.0220481
-0.0156614
0.0230378
-0.0151179
0.0239961
-0.014547
0.0249232
-0.0140032
0.0258196
-0.013461
0.026684
-0.0129075
0.0275134
-0.0123526
0.0283069
-0.0118083
0.0290653
-0.0112525
0.029788
-0.0106875
0.030474
-0.0101134
0.0311202
-0.00956789
0.0317286
-0.00899618
0.0322987
-0.00841486
0.0328299
-0.00782591
0.0333219
-0.0072293
0.0337729
-0.00666686
0.0341842
-0.00606674
0.0345554
-0.00545932
0.0348864
-0.00484585
0.0351767
-0.00422654
0.0354262
-0.00361383
0.0356352
-0.0029615
0.0358035
-0.00232564
0.0359306
-0.00172307
0.0360163
-0.0011533
-0.00061538
0.0360605
0.00729518
-0.0263632
-0.0060021
0.00858059
-0.0253429
0.00985787
-0.0242629
0.0111225
-0.0232086
0.0123734
-0.0224243
0.0136091
-0.0217055
0.0148255
-0.0208971
0.016025
-0.0203632
0.0172028
-0.0196607
0.0183578
-0.0190381
0.0194912
-0.0184933
0.0205995
-0.017885
0.0216795
-0.0172671
0.0227332
-0.0167151
0.0237592
-0.0161439
0.024753
-0.0155408
0.0257147
-0.0149649
0.0266446
-0.0143909
0.0275414
-0.0138044
0.0284023
-0.0132134
0.0292262
-0.0126322
0.0300139
-0.0120402
0.0307647
-0.0114382
0.0314774
-0.0108262
0.0321493
-0.0102398
0.032782
-0.00962882
0.0333749
-0.00900778
0.0339276
-0.00837856
0.0344394
-0.00774118
0.0349089
-0.00713632
0.035337
-0.00649484
0.0357234
-0.00584576
0.0360679
-0.00519034
0.0363702
-0.00452882
0.0366299
-0.00387352
0.0368473
-0.00317895
0.0370223
-0.00250061
0.0371544
-0.00185519
0.0372434
-0.00124231
-0.000661144
0.0372892
0.00743496
-0.0277062
-0.00609192
0.00876968
-0.0266776
0.0100955
-0.0255888
0.0114081
-0.0245212
0.0127061
-0.0237224
0.0139881
-0.0229875
0.0152501
-0.022159
0.0164942
-0.0216073
0.0177157
-0.0208822
0.0189137
-0.020236
0.0200889
-0.0196685
0.0212381
-0.0190343
0.0223582
-0.0183872
0.0234508
-0.0178077
0.0245146
-0.0172077
0.0255454
-0.0165715
0.0265431
-0.0159626
0.0275078
-0.0153557
0.0284383
-0.014735
0.0293318
-0.0141069
0.0301872
-0.0134876
0.0310052
-0.0128582
0.0317849
-0.0122179
0.0325253
-0.0115667
0.0332236
-0.0109381
0.0338812
-0.0102864
0.0344976
-0.00962418
0.0350722
-0.00895318
0.0356045
-0.00827349
0.0360928
-0.00762463
0.0365381
-0.00694015
0.0369401
-0.00624775
0.0372984
-0.00554867
0.0376128
-0.00484322
0.0378829
-0.00414357
0.0381089
-0.00340499
0.0382907
-0.00268239
0.0384278
-0.00199232
0.03852
-0.00133453
-0.000708335
0.0385672
0.00758237
-0.0291014
-0.00618718
0.00896855
-0.0280638
0.0103451
-0.0269653
0.0117077
-0.0258838
0.0130549
-0.0250696
0.0143853
-0.0243179
0.0156949
-0.0234687
0.0169857
-0.0228981
0.0182529
-0.0221495
0.0194957
-0.0214788
0.0207147
-0.0208874
0.0219066
-0.0202262
0.0230684
-0.019549
0.0242017
-0.018941
0.0253051
-0.0183111
0.0263744
-0.0176408
0.0274094
-0.0169976
0.0284103
-0.0163566
0.0293759
-0.0157005
0.0303031
-0.0150342
0.0311912
-0.0143756
0.0320405
-0.0137075
0.0328501
-0.0130275
0.033619
-0.0123357
0.0343445
-0.0116635
0.0350278
-0.0109697
0.0356684
-0.0102648
0.0362656
-0.00955038
0.0368189
-0.00882676
0.0373265
-0.0081323
0.0377895
-0.00740312
0.0382074
-0.00666565
0.0385799
-0.00592116
0.0389067
-0.00517
0.0391873
-0.00442419
0.039422
-0.00363976
0.0396107
-0.00287104
0.0397529
-0.00213447
0.0398482
-0.00142992
-0.000756848
0.0398968
0.00773752
-0.030551
-0.00628796
0.00917739
-0.0295037
0.0106068
-0.0283947
0.0120216
-0.0272986
0.0134203
-0.0264683
0.0148012
-0.0256988
0.0161606
-0.0248281
0.0175
-0.0242375
0.018815
-0.0234645
0.0201046
-0.0227684
0.0213692
-0.022152
0.0226058
-0.0214627
0.0238112
-0.0207545
0.0249869
-0.0201167
0.0261315
-0.0194556
0.0272409
-0.0187502
0.0283148
-0.0180716
0.0293534
-0.0173951
0.0303553
-0.0167024
0.0313177
-0.0159966
0.0322395
-0.0152975
0.0331213
-0.0145893
0.0339618
-0.0138681
0.0347603
-0.0131342
0.0355139
-0.0124171
0.0362237
-0.0116795
0.0368892
-0.0109302
0.0375097
-0.0101709
0.0380845
-0.00940161
0.0386121
-0.00865986
0.0390932
-0.00788422
0.0395274
-0.00709988
0.0399144
-0.00630815
0.0402538
-0.00550942
0.0405452
-0.0047156
0.0407889
-0.0038834
0.0409845
-0.00306666
0.0411317
-0.00228167
0.0412302
-0.00152844
-0.000806583
0.04128
0.00790058
-0.0320572
-0.00639433
0.00939644
-0.0309995
0.0108811
-0.0298794
0.0123504
-0.0287679
0.0138027
-0.0279206
0.0152363
-0.0271324
0.0166476
-0.0262394
0.0180378
-0.0256277
0.0194027
-0.0248295
0.0207412
-0.0241069
0.0220534
-0.0234643
0.0233365
-0.0227458
0.0245875
-0.0220054
0.0258074
-0.0213367
0.0269948
-0.0206431
0.028146
-0.0199014
0.0292606
-0.0191861
0.0303383
-0.0184729
0.031378
-0.017742
0.0323768
-0.0169955
0.0333338
-0.0162544
0.0342491
-0.0155046
0.0351218
-0.0147407
0.0359509
-0.0139632
0.0367335
-0.0131997
0.0374707
-0.0124168
0.0381619
-0.0116214
0.0388063
-0.0108153
0.0394034
-0.0099987
0.0399515
-0.00920791
0.0404512
-0.00838397
0.0409022
-0.00755089
0.0413041
-0.00671002
0.0416565
-0.00586181
0.0419589
-0.00501802
0.0422116
-0.0041361
0.0424143
-0.00326936
0.0425666
-0.00243397
0.0426683
-0.00163007
-0.000857444
0.0427191
0.00807172
-0.0336226
-0.00650639
0.00962595
-0.0325538
0.0111681
-0.0314215
0.0126942
-0.030294
0.0142025
-0.0294289
0.0156911
-0.028621
0.0171566
-0.0277049
0.0185998
-0.0270709
0.0200168
-0.0262464
0.0214062
-0.0254963
0.0227682
-0.0248262
0.0240998
-0.0240774
0.0253982
-0.0233038
0.0266642
-0.0226027
0.0278964
-0.0218753
0.0290911
-0.0210961
0.0302479
-0.0203428
0.0313664
-0.0195914
0.0324454
-0.018821
0.0334821
-0.0180322
0.0344755
-0.0172478
0.0354258
-0.0164548
0.0363317
-0.0156467
0.0371924
-0.0148238
0.0380051
-0.0140124
0.0387706
-0.0131823
0.0394884
-0.0123392
0.0401576
-0.0114846
0.0407777
-0.0106187
0.0413468
-0.00977708
0.0418658
-0.00890292
0.0423341
-0.00801917
0.0427512
-0.00712719
0.0431169
-0.0062275
0.0434306
-0.00533175
0.0436926
-0.00439806
0.0439025
-0.00347926
0.04406
-0.00259141
0.0441647
-0.00173479
-0.000909335
0.0442166
0.00825116
-0.0352494
-0.00662427
0.00986621
-0.0341688
0.0114684
-0.0330237
0.0130537
-0.0318793
0.0146203
-0.0309955
0.0161663
-0.0301669
0.0176882
-0.0292268
0.0191867
-0.0285694
0.020658
-0.0277177
0.0221005
-0.0269389
0.0235144
-0.0262401
0.0248966
-0.0254597
0.0262445
-0.0246517
0.0275586
-0.0239168
0.0288374
-0.0231541
0.0300775
-0.0223362
0.0312781
-0.0215435
0.0324391
-0.0207524
0.033559
-0.0199409
0.0346351
-0.0191084
0.0356664
-0.0182791
0.0366528
-0.0174413
0.0375933
-0.0165872
0.0384868
-0.0157173
0.0393306
-0.0148562
0.0401255
-0.0139772
0.0408708
-0.0130845
0.0415656
-0.0121794
0.0422094
-0.0112625
0.0428004
-0.0103681
0.0433391
-0.00944168
0.0438252
-0.00850524
0.0442581
-0.0075601
0.0446375
-0.00660686
0.0449628
-0.00565706
0.0452342
-0.0046695
0.0454514
-0.00369651
0.0456141
-0.00275406
0.0457219
-0.00184257
-0.000962167