/*--------------------------------*- C++ -*----------------------------------*\
| =========                 |                                                 |
| \\      /  F ield         | OpenFOAM: The Open Source CFD Toolbox           |
|  \\    /   O peration     | Version:  3.0.1                                 |
|   \\  /    A nd           | Web:      www.OpenFOAM.org                      |
|    \\/     M anipulation  |                                                 |
\*---------------------------------------------------------------------------*/
FoamFile
{
    version     2.0;
    format      ascii;
    class       volVectorField;
    location    "500";
    object      U;
}
// * * * * * * * * * * * * * * * * * * * * * * * * * * * * * * * * * * * * * //

dimensions      [0 1 -1 0 0 0 0];

internalField   nonuniform List<vector> 
58000
(
(0.314237 1.11525 1.07252e-21)
(0.452815 1.24758 -1.39127e-20)
(0.598397 1.29545 1.75371e-20)
(0.725355 1.2643 -2.77525e-20)
(0.826431 1.18826 -5.52035e-20)
(0.906311 1.09191 0)
(0.969772 0.993905 -3.1914e-20)
(1.01837 0.897767 -7.18196e-22)
(1.05815 0.80849 3.61171e-20)
(1.09038 0.731514 0)
(1.11663 0.664178 3.91209e-20)
(1.13911 0.605767 3.68685e-20)
(1.1593 0.558262 -1.18555e-19)
(1.17418 0.518563 4.15135e-20)
(1.18522 0.484279 3.68919e-20)
(1.19386 0.455189 7.4562e-20)
(1.20009 0.430566 -1.09325e-19)
(1.20459 0.40886 0)
(1.20785 0.388821 6.94865e-20)
(1.21017 0.370082 -1.03213e-19)
(1.21161 0.352923 7.70393e-22)
(1.2121 0.336934 3.36586e-20)
(1.21213 0.321591 1.59358e-20)
(1.21125 0.306349 0)
(1.21015 0.29179 3.0186e-20)
(1.20813 0.278082 -1.49322e-20)
(1.20575 0.264868 0)
(1.20309 0.251963 3.17373e-22)
(1.19974 0.2391 0)
(1.19632 0.226781 -1.3861e-20)
(1.1923 0.215139 6.77341e-20)
(1.18809 0.203848 -6.72449e-20)
(1.18374 0.192774 -3.95893e-20)
(1.17903 0.181779 1.03791e-19)
(1.17405 0.170968 -2.57638e-20)
(1.16675 0.160269 -1.26955e-20)
(1.15594 0.150063 1.88594e-20)
(1.14481 0.141138 -1.2114e-20)
(1.13509 0.133559 1.80646e-20)
(1.13435 0.128586 0)
(0.546127 0.728727 -8.01195e-21)
(0.654324 0.805633 0)
(0.766195 0.864176 2.22978e-23)
(0.875507 0.915536 -2.26978e-23)
(0.978377 0.948758 3.32343e-20)
(1.07218 0.959314 2.67683e-20)
(1.15213 0.950372 -5.16142e-20)
(1.21966 0.925794 1.48727e-20)
(1.27478 0.888752 7.15525e-20)
(1.31635 0.845445 -3.90336e-20)
(1.3474 0.797604 0)
(1.36895 0.747444 -7.17597e-20)
(1.38161 0.699841 4.76181e-20)
(1.38897 0.655582 2.58357e-20)
(1.39253 0.61305 -2.58519e-20)
(1.39339 0.574132 0)
(1.3925 0.53962 2.5537e-20)
(1.39049 0.507915 0)
(1.38769 0.478065 9.69503e-20)
(1.38443 0.450522 -1.45102e-19)
(1.381 0.425773 0)
(1.37735 0.402843 1.17527e-19)
(1.3735 0.380921 -9.3245e-20)
(1.36933 0.359751 0)
(1.36514 0.34017 -3.36486e-20)
(1.36088 0.322137 0)
(1.35641 0.304767 0)
(1.35174 0.287886 3.22485e-20)
(1.34674 0.271389 0)
(1.3417 0.255909 -3.13624e-20)
(1.33662 0.241436 4.14813e-20)
(1.33134 0.227352 -4.04932e-20)
(1.32584 0.21353 3.01359e-20)
(1.32004 0.19991 -1.99473e-20)
(1.31398 0.186719 0)
(1.30752 0.174134 -2.92046e-20)
(1.30089 0.162698 1.92556e-20)
(1.29438 0.15273 0)
(1.28846 0.143706 -4.74543e-21)
(1.28401 0.135986 9.28766e-21)
(0.57294 0.66155 2.57287e-21)
(0.623227 0.72414 -9.67814e-22)
(0.686099 0.777686 -2.21992e-22)
(0.758063 0.819423 8.22359e-22)
(0.83424 0.848559 -8.59474e-22)
(0.913038 0.865931 -1.44586e-20)
(0.988149 0.871288 1.86438e-20)
(1.05994 0.865251 0)
(1.12557 0.849197 -2.59634e-20)
(1.1816 0.824967 2.37951e-20)
(1.23022 0.793875 2.98228e-20)
(1.27095 0.758064 -1.67796e-21)
(1.30236 0.720788 0)
(1.32683 0.682874 6.66816e-20)
(1.34606 0.644543 -3.4888e-20)
(1.36002 0.608121 0)
(1.36965 0.574538 0)
(1.37631 0.542887 0)
(1.38076 0.512778 -1.74508e-20)
(1.38336 0.484816 1.85888e-20)
(1.38451 0.459339 0)
(1.38462 0.435511 1.72931e-20)
(1.38393 0.412752 0)
(1.38257 0.390935 0)
(1.38066 0.370722 3.4677e-20)
(1.37831 0.351901 -6.8361e-20)
(1.37553 0.333744 6.83533e-20)
(1.3724 0.316186 1.63729e-20)
(1.3689 0.29917 -3.34752e-20)
(1.36518 0.28318 -2.4498e-20)
(1.36122 0.268091 0)
(1.35699 0.253399 1.57604e-20)
(1.35249 0.239079 0)
(1.34771 0.22512 3.01311e-22)
(1.34269 0.211745 -2.31917e-20)
(1.33738 0.199001 1.55879e-20)
(1.33173 0.186853 0)
(1.32601 0.175395 0)
(1.32049 0.164405 -3.73261e-21)
(1.31555 0.1535 -3.92961e-21)
(0.648828 0.593549 3.68403e-21)
(0.683415 0.639402 9.28607e-22)
(0.723611 0.682808 -1.16941e-21)
(0.770377 0.720985 8.48757e-25)
(0.822727 0.751208 2.51105e-21)
(0.879867 0.772905 0)
(0.938013 0.785051 -7.34542e-21)
(0.996317 0.788407 0)
(1.05309 0.783505 -1.49597e-20)
(1.10497 0.771268 -3.25975e-21)
(1.1528 0.752654 -1.94947e-20)
(1.19577 0.728828 1.85398e-20)
(1.23173 0.701956 -2.39186e-20)
(1.26184 0.672866 -4.8859e-20)
(1.28738 0.641886 -2.59422e-20)
(1.30774 0.610917 2.6602e-20)
(1.32335 0.581043 -2.52072e-20)
(1.33558 0.551919 0)
(1.34516 0.523481 -1.1979e-20)
(1.35229 0.496478 -5.46944e-20)
(1.35731 0.471403 5.48515e-20)
(1.36081 0.447659 -1.41525e-20)
(1.36314 0.424796 0)
(1.36448 0.402749 0)
(1.36489 0.382177 4.01653e-20)
(1.36457 0.362931 -5.40587e-20)
(1.36364 0.34434 5.33648e-20)
(1.36218 0.326336 -4.49539e-22)
(1.36021 0.308865 -1.05529e-19)
(1.35784 0.292391 6.60499e-20)
(1.35513 0.276821 -2.57899e-20)
(1.35205 0.26168 -1.29245e-20)
(1.34863 0.246938 5.1055e-20)
(1.34487 0.232578 -1.89477e-20)
(1.34083 0.218809 6.42217e-21)
(1.33657 0.205685 -6.09968e-21)
(1.33206 0.193049 -6.05455e-21)
(1.3274 0.180885 0)
(1.32269 0.169141 3.01045e-21)
(1.31818 0.157799 -3.13431e-21)
(0.691616 0.55077 -1.68958e-21)
(0.716462 0.586858 -2.6247e-21)
(0.74521 0.622528 2.14202e-22)
(0.778919 0.656042 2.40361e-22)
(0.817746 0.685047 -1.00868e-21)
(0.861675 0.708575 0)
(0.908244 0.724791 3.04225e-21)
(0.95672 0.733855 2.89068e-21)
(1.00572 0.735872 0)
(1.05232 0.730985 9.47442e-21)
(1.09699 0.720026 1.12174e-20)
(1.13876 0.703839 0)
(1.17537 0.683832 -1.69576e-20)
(1.20742 0.6608 1.81634e-20)
(1.23588 0.63523 0)
(1.25974 0.608677 -3.62106e-20)
(1.27904 0.582161 9.92145e-20)
(1.29498 0.555624 6.33319e-22)
(1.30818 0.529179 -1.94898e-20)
(1.31866 0.503606 0)
(1.32667 0.479459 0)
(1.33284 0.45632 0)
(1.3376 0.433866 2.08348e-20)
(1.34113 0.412102 0)
(1.34346 0.39167 0)
(1.3448 0.372442 0)
(1.34538 0.353825 3.2311e-20)
(1.3453 0.335768 -4.29329e-20)
(1.34462 0.31824 5.27152e-20)
(1.34337 0.301679 -3.21754e-20)
(1.34166 0.285986 0)
(1.33952 0.27072 0)
(1.33698 0.25586 -1.05256e-20)
(1.33405 0.241398 3.11668e-20)
(1.33081 0.227529 -2.10024e-22)
(1.32731 0.214288 -2.53999e-20)
(1.32356 0.201472 1.53416e-20)
(1.31957 0.189025 0)
(1.31539 0.17694 0)
(1.31108 0.165257 -5.04588e-21)
(0.728893 0.517026 0)
(0.748182 0.545947 1.85793e-21)
(0.769793 0.575159 2.25313e-21)
(0.794899 0.603689 -6.78794e-22)
(0.824164 0.629841 -1.00731e-21)
(0.858078 0.652835 1.77068e-21)
(0.895273 0.670663 1.65716e-21)
(0.93521 0.683138 6.43286e-21)
(0.976932 0.689893 1.20246e-21)
(1.01798 0.6905 -1.40963e-20)
(1.0585 0.685592 -4.30372e-22)
(1.0976 0.675655 -2.94595e-20)
(1.13306 0.661516 4.37912e-20)
(1.1651 0.643913 -2.33005e-20)
(1.19444 0.623363 2.69043e-20)
(1.2199 0.601086 -2.57194e-20)
(1.24127 0.578017 0)
(1.25951 0.554293 0)
(1.27513 0.530125 0)
(1.28801 0.506279 0)
(1.29825 0.483353 -1.73878e-20)
(1.30651 0.461096 -1.64402e-20)
(1.3132 0.43929 5.05606e-20)
(1.31851 0.417993 -3.42982e-20)
(1.32243 0.397835 0)
(1.32517 0.378743 1.67884e-20)
(1.32703 0.360196 -2.56611e-20)
(1.32811 0.342161 3.47816e-20)
(1.32849 0.32462 -6.01967e-20)
(1.32819 0.307991 1.73638e-20)
(1.32733 0.292194 -3.42063e-20)
(1.32596 0.276816 3.43739e-20)
(1.32414 0.261842 -4.13122e-22)
(1.32189 0.24726 8.69333e-21)
(1.31928 0.233254 0)
(1.31636 0.219854 0)
(1.31315 0.206856 -8.31601e-21)
(1.30966 0.194199 8.35749e-21)
(1.3059 0.181902 0)
(1.30193 0.17004 -4.00053e-21)
(0.757754 0.49019 8.95302e-22)
(0.773632 0.514034 -1.1011e-21)
(0.791017 0.538333 -3.24278e-22)
(0.810841 0.562517 3.66389e-22)
(0.833831 0.585426 -2.59471e-22)
(0.860656 0.60659 -1.74248e-21)
(0.89065 0.624229 -2.06224e-21)
(0.923556 0.638066 -8.6886e-22)
(0.95883 0.647526 0)
(0.994521 0.65181 0)
(1.03067 0.651339 5.21553e-21)
(1.06648 0.646299 0)
(1.09989 0.637016 0)
(1.13092 0.624111 -1.83482e-20)
(1.16004 0.608084 9.6194e-21)
(1.18602 0.589831 -2.03068e-20)
(1.20845 0.570167 1.13408e-20)
(1.2281 0.549351 0)
(1.24536 0.527653 1.17971e-20)
(1.25996 0.50579 1.35911e-20)
(1.27193 0.484371 -2.72254e-20)
(1.28185 0.463278 4.09799e-20)
(1.29014 0.442392 2.10411e-22)
(1.29695 0.421813 -2.75973e-20)
(1.30222 0.402159 1.44788e-20)
(1.30618 0.383406 -2.8169e-20)
(1.30916 0.365111 -2.83237e-20)
(1.31127 0.347258 -1.38271e-20)
(1.31259 0.329848 1.46244e-20)
(1.31313 0.313285 -3.49655e-20)
(1.31301 0.297502 5.67566e-20)
(1.31234 0.282119 -1.94723e-22)
(1.31116 0.267125 -5.67164e-20)
(1.3095 0.252513 7.27824e-21)
(1.30742 0.238456 0)
(1.30499 0.224983 2.0795e-20)
(1.30223 0.211897 -7.20704e-21)
(1.29914 0.199136 0)
(1.29573 0.186732 3.43326e-21)
(1.29203 0.174765 3.73862e-21)
(0.781555 0.467926 -9.45265e-22)
(0.795073 0.487988 3.14224e-22)
(0.809621 0.508511 2.09878e-22)
(0.825935 0.529135 5.23562e-24)
(0.844667 0.549039 1.20871e-22)
(0.866474 0.567985 1.31127e-21)
(0.89107 0.58451 -9.10808e-22)
(0.918391 0.598384 2.01718e-21)
(0.9482 0.609016 -2.10508e-21)
(0.979023 0.615453 0)
(1.01089 0.617963 2.92713e-21)
(1.04317 0.616515 -1.05267e-20)
(1.07404 0.611059 5.50568e-21)
(1.10337 0.602069 -1.9852e-20)
(1.1315 0.589983 2.33792e-20)
(1.15719 0.575395 -2.35402e-20)
(1.17991 0.558976 2.612e-20)
(1.20026 0.541052 0)
(1.2185 0.521909 -1.02575e-20)
(1.23429 0.502189 1.06791e-20)
(1.24754 0.482479 -1.10188e-20)
(1.25875 0.462773 2.17791e-20)
(1.26833 0.44303 -4.43054e-20)
(1.2764 0.423385 2.24136e-20)
(1.28284 0.404432 1.18837e-20)
(1.28787 0.386195 1.19568e-20)
(1.29186 0.368309 -2.33499e-20)
(1.2949 0.350781 4.70908e-20)
(1.29707 0.333626 0)
(1.29839 0.317235 3.58622e-20)
(1.29896 0.301558 -3.52475e-20)
(1.29893 0.286252 2.36356e-20)
(1.29834 0.271311 -1.77042e-20)
(1.29722 0.256731 6.07347e-21)
(1.29563 0.24268 5.76881e-21)
(1.29364 0.229187 -2.89145e-22)
(1.29128 0.216067 -6.0291e-21)
(1.28855 0.203263 0)
(1.28547 0.190813 -2.89954e-21)
(1.28204 0.178798 3.04575e-21)
(0.80135 0.448986 0)
(0.813176 0.466162 0)
(0.825744 0.483749 -2.15448e-21)
(0.839632 0.501505 8.12663e-22)
(0.855396 0.518823 -1.28163e-23)
(0.873619 0.535605 -1.0421e-21)
(0.894202 0.550677 2.01845e-21)
(0.917189 0.563887 0)
(0.94254 0.574712 0)
(0.969165 0.582197 -5.20481e-21)
(0.99712 0.586519 -7.67706e-21)
(1.02593 0.587523 -5.12938e-23)
(1.05407 0.584906 1.3907e-20)
(1.08133 0.579008 -2.85669e-21)
(1.10795 0.570186 -9.14449e-21)
(1.13278 0.558782 0)
(1.1552 0.545313 0)
(1.17568 0.53012 0)
(1.19435 0.513479 0)
(1.21084 0.49594 -1.65501e-20)
(1.22495 0.478046 1.67541e-20)
(1.23712 0.459871 2.61726e-20)
(1.2477 0.441436 -3.61878e-20)
(1.25678 0.422897 9.44075e-21)
(1.26421 0.404816 0)
(1.27017 0.387259 -1.92025e-20)
(1.27504 0.369936 1.93604e-20)
(1.27892 0.352872 -1.01347e-20)
(1.28187 0.336101 0)
(1.2839 0.319996 -1.0198e-20)
(1.28512 0.304531 1.03055e-20)
(1.28568 0.289397 3.99457e-20)
(1.28564 0.274594 -4.00479e-20)
(1.28504 0.260125 2.00765e-20)
(1.28391 0.246151 -5.14018e-21)
(1.28233 0.232706 -2.48537e-20)
(1.28035 0.219619 1.00302e-20)
(1.27796 0.206836 4.96034e-21)
(1.27519 0.194399 -7.45584e-21)
(1.27202 0.182385 2.58724e-21)
(0.81811 0.432554 0)
(0.828653 0.447464 0)
(0.83976 0.462725 1.27391e-21)
(0.85189 0.478164 -8.6276e-22)
(0.865509 0.493311 6.47605e-23)
(0.881114 0.508149 6.5713e-22)
(0.898694 0.52173 -1.39678e-21)
(0.918341 0.533971 -1.0257e-21)
(0.940124 0.544443 3.38636e-21)
(0.963237 0.552262 -3.88757e-21)
(0.987771 0.557555 -1.27634e-22)
(1.01339 0.560115 3.90464e-23)
(1.03884 0.559498 5.28974e-21)
(1.06389 0.555931 8.2919e-21)
(1.08874 0.549699 1.02992e-20)
(1.11233 0.540943 -1.19754e-22)
(1.13402 0.530037 -1.01813e-20)
(1.15416 0.517305 0)
(1.17284 0.502998 -1.18524e-20)
(1.1896 0.487567 1.26113e-20)
(1.2042 0.471495 -1.40528e-20)
(1.217 0.454908 7.41027e-21)
(1.22831 0.437868 3.21353e-22)
(1.23816 0.420544 8.23314e-21)
(1.24637 0.403455 -1.56254e-20)
(1.25311 0.386704 0)
(1.25874 0.370067 2.41806e-20)
(1.26334 0.353585 -4.09697e-20)
(1.26699 0.337309 3.3243e-20)
(1.26966 0.321595 -2.54672e-20)
(1.27148 0.306436 -1.6847e-20)
(1.27259 0.291561 1.69752e-20)
(1.27307 0.276977 1.69928e-20)
(1.27294 0.262693 -1.70902e-20)
(1.27225 0.248866 8.5143e-21)
(1.27107 0.235534 2.01417e-22)
(1.26945 0.222538 0)
(1.26739 0.209833 0)
(1.26492 0.197462 4.15241e-21)
(1.26202 0.185497 0)
(0.832481 0.418075 8.1083e-22)
(0.842016 0.431168 1.51202e-22)
(0.852 0.444554 -1.54061e-22)
(0.862803 0.458103 3.40398e-24)
(0.874816 0.471438 0)
(0.888457 0.484584 -1.12218e-22)
(0.903753 0.496768 4.68458e-22)
(0.920812 0.507957 -4.76678e-22)
(0.939756 0.517808 1.90105e-21)
(0.959981 0.525533 -2.30565e-21)
(0.981602 0.53124 3.71417e-21)
(1.0044 0.534709 0)
(1.02734 0.535433 -4.8951e-21)
(1.05021 0.533559 1.54539e-21)
(1.07319 0.529307 1.46323e-20)
(1.09533 0.522678 -1.57569e-20)
(1.11603 0.513921 2.62526e-20)
(1.13552 0.503331 -9.0662e-21)
(1.15384 0.491118 1.06563e-20)
(1.17053 0.47764 -1.13434e-20)
(1.1853 0.463313 0)
(1.19845 0.448294 1.2444e-20)
(1.21021 0.432667 1.19185e-20)
(1.22061 0.416605 0)
(1.22941 0.400579 0)
(1.23677 0.384719 1.29994e-20)
(1.24302 0.368856 6.67047e-21)
(1.24824 0.353048 -6.68122e-21)
(1.25248 0.337356 1.36914e-20)
(1.25572 0.322118 2.12564e-20)
(1.25807 0.307348 -1.43716e-20)
(1.25969 0.292811 0)
(1.26064 0.278519 -1.45517e-20)
(1.26096 0.26449 1.46406e-20)
(1.26068 0.250874 7.31294e-21)
(1.25987 0.237714 -4.57973e-23)
(1.25859 0.224868 -7.37647e-21)
(1.25685 0.212295 0)
(1.25467 0.200039 -1.09242e-20)
(1.25202 0.188167 0)
(0.844939 0.40516 -9.87671e-22)
(0.853658 0.416769 1.01591e-21)
(0.862749 0.428617 7.34236e-22)
(0.872515 0.440607 -5.86669e-22)
(0.883285 0.452425 -2.83393e-22)
(0.895412 0.464116 1.03237e-22)
(0.908935 0.475042 4.51664e-22)
(0.923965 0.485204 -8.76008e-22)
(0.94064 0.494328 -2.31931e-22)
(0.958501 0.501725 1.93666e-21)
(0.977674 0.507495 -5.50349e-21)
(0.998018 0.511429 -6.16142e-22)
(1.0187 0.513007 1.2606e-20)
(1.03953 0.512321 -9.00968e-21)
(1.06067 0.509544 -5.92924e-21)
(1.08129 0.504578 7.19272e-21)
(1.10084 0.497578 -1.41692e-20)
(1.11947 0.488797 -7.29665e-21)
(1.13719 0.478407 1.70482e-20)
(1.15356 0.466682 -1.73169e-20)
(1.16825 0.453972 0)
(1.18149 0.440443 0)
(1.19348 0.426192 -8.41148e-22)
(1.2042 0.411385 0)
(1.21342 0.396446 0)
(1.22123 0.381519 -1.18094e-20)
(1.22797 0.366485 -1.12713e-20)
(1.23368 0.351411 -1.15142e-20)
(1.23842 0.336367 1.13147e-20)
(1.24215 0.321674 -6.64166e-21)
(1.24496 0.307359 -3.56053e-22)
(1.24703 0.293223 1.24423e-20)
(1.2484 0.279286 0)
(1.24912 0.26557 1.8712e-20)
(1.24922 0.252222 -1.26867e-20)
(1.24876 0.239289 -1.25176e-20)
(1.2478 0.226643 6.38091e-21)
(1.24636 0.214251 -3.17157e-21)
(1.24446 0.202155 9.72714e-21)
(1.24206 0.190418 0)
(0.85584 0.393524 6.38645e-22)
(0.863881 0.403901 -4.11529e-22)
(0.872242 0.414471 -1.75249e-22)
(0.881173 0.425158 5.01187e-22)
(0.890953 0.435697 3.12419e-22)
(0.901881 0.446142 1.01439e-22)
(0.913999 0.455957 -5.22256e-22)
(0.927412 0.465163 1.50524e-21)
(0.942257 0.473541 -2.38471e-21)
(0.958179 0.480496 -1.78096e-21)
(0.975304 0.48612 2.31415e-21)
(0.993548 0.490227 -2.97292e-21)
(1.01223 0.492314 6.20215e-21)
(1.03121 0.492435 4.15773e-21)
(1.0506 0.49073 9.07232e-21)
(1.06973 0.48704 5.60814e-22)
(1.08806 0.481446 -6.07587e-21)
(1.10572 0.474162 2.57746e-20)
(1.12269 0.465326 -3.39945e-20)
(1.13855 0.455138 2.95724e-20)
(1.15296 0.443885 -7.82831e-21)
(1.1661 0.431732 0)
(1.17811 0.41878 -7.02625e-22)
(1.18898 0.405184 0)
(1.19844 0.391318 0)
(1.20656 0.377334 0)
(1.21365 0.363151 6.81739e-22)
(1.21974 0.348844 3.09854e-20)
(1.22488 0.334489 -3.12671e-20)
(1.22901 0.320385 -3.20762e-22)
(1.23221 0.306576 -2.15837e-20)
(1.23466 0.292891 1.07584e-20)
(1.23641 0.279358 -1.05598e-20)
(1.23749 0.266004 -1.65447e-20)
(1.23792 0.252971 -5.3505e-21)
(1.23778 0.240311 1.10467e-20)
(1.23712 0.227909 0)
(1.23596 0.215739 -5.40456e-21)
(1.23433 0.203844 -6.78404e-21)
(1.23216 0.19228 1.42352e-21)
(0.865455 0.382954 5.65597e-22)
(0.872922 0.392293 0)
(0.880671 0.401786 -1.33445e-21)
(0.888912 0.411373 4.44008e-22)
(0.897884 0.420827 2.57418e-22)
(0.907841 0.4302 -2.81128e-23)
(0.918822 0.439041 0)
(0.930923 0.447379 -6.47091e-22)
(0.944274 0.455039 1.02926e-21)
(0.958593 0.461506 -1.54086e-21)
(0.974003 0.46687 -2.07391e-21)
(0.990455 0.470964 -4.23687e-22)
(1.0074 0.473321 -3.88007e-22)
(1.0247 0.473971 0)
(1.0425 0.473028 -1.18289e-20)
(1.06019 0.4703 1.25795e-20)
(1.07731 0.465816 0)
(1.09395 0.459754 -1.05762e-20)
(1.11009 0.45222 6.0337e-21)
(1.12532 0.443355 -1.2776e-20)
(1.1393 0.433391 5.99588e-21)
(1.15219 0.422484 0)
(1.16408 0.410731 7.34597e-21)
(1.17494 0.398275 -7.74107e-21)
(1.1845 0.385439 0)
(1.1928 0.372381 -1.67602e-20)
(1.20012 0.359048 1.75065e-20)
(1.20648 0.345517 9.13976e-21)
(1.21192 0.331869 -1.77365e-20)
(1.21636 0.318382 0)
(1.21988 0.305111 2.8347e-22)
(1.22266 0.291914 -1.83863e-20)
(1.22472 0.278821 9.7247e-21)
(1.22611 0.265866 0)
(1.22684 0.253186 4.93014e-21)
(1.22698 0.240836 -4.95258e-21)
(1.22659 0.228716 4.70817e-21)
(1.22569 0.216804 4.98351e-21)
(1.2243 0.205143 9.71256e-21)
(1.22236 0.193786 4.81584e-21)
(0.873996 0.373285 0)
(0.880967 0.38174 0)
(0.888194 0.390316 4.09354e-23)
(0.895853 0.398965 -8.00202e-22)
(0.90415 0.407488 -1.17672e-23)
(0.913302 0.415937 -2.58013e-24)
(0.923345 0.423924 0)
(0.934364 0.431484 0)
(0.94648 0.438475 9.48674e-22)
(0.959461 0.444449 -9.71697e-22)
(0.973425 0.449492 3.98712e-22)
(0.988349 0.453462 -1.67802e-21)
(1.00377 0.455928 0)
(1.0196 0.456907 0)
(1.03594 0.456493 5.9377e-21)
(1.0523 0.454482 -6.8236e-21)
(1.06825 0.450864 7.00228e-22)
(1.08388 0.445788 5.36825e-21)
(1.09914 0.439334 -9.33434e-21)
(1.11367 0.431596 0)
(1.12714 0.422756 5.4304e-21)
(1.13966 0.41296 5.76785e-21)
(1.15131 0.402296 0)
(1.16204 0.390892 6.56108e-21)
(1.17158 0.379029 -1.36376e-20)
(1.17995 0.36686 0)
(1.18739 0.354355 7.64135e-21)
(1.19392 0.34159 -7.42028e-21)
(1.19957 0.328651 2.28671e-20)
(1.20424 0.315792 0)
(1.20801 0.303078 1.60698e-20)
(1.21105 0.290389 8.39282e-21)
(1.21338 0.277762 8.01047e-21)
(1.21503 0.265234 -8.30725e-21)
(1.21602 0.252936 8.38599e-21)
(1.21641 0.240926 0)
(1.21626 0.229117 -4.36013e-21)
(1.21559 0.217491 0)
(1.21442 0.206093 -4.3804e-21)
(1.21268 0.194973 -4.44006e-21)
(0.881627 0.364389 3.59319e-22)
(0.888166 0.372084 -5.06164e-22)
(0.894939 0.37987 1.15589e-21)
(0.902098 0.387711 3.64966e-22)
(0.90982 0.39543 -1.91686e-22)
(0.918293 0.403077 -4.61996e-23)
(0.927548 0.410315 4.9908e-23)
(0.937661 0.417181 -7.99518e-22)
(0.94874 0.423558 -4.85744e-22)
(0.960594 0.429055 -8.19519e-22)
(0.973331 0.433756 2.44057e-22)
(0.986943 0.437536 3.43426e-21)
(1.00105 0.440006 -3.5214e-21)
(1.01556 0.441174 -5.13024e-22)
(1.0306 0.441119 -6.01323e-22)
(1.04573 0.439634 1.26992e-20)
(1.06059 0.436688 -6.43573e-21)
(1.07522 0.432402 7.20052e-21)
(1.08961 0.426835 -8.54235e-21)
(1.1034 0.420047 4.39712e-23)
(1.1163 0.412179 -5.04057e-21)
(1.12838 0.403361 5.15203e-21)
(1.13971 0.393674 -1.42732e-22)
(1.15021 0.38323 0)
(1.15964 0.37227 0)
(1.16798 0.36094 -1.19753e-20)
(1.17546 0.349229 -6.19419e-21)
(1.18208 0.337209 -6.38404e-21)
(1.18785 0.324966 -4.31903e-22)
(1.19268 0.312734 -2.05744e-20)
(1.19664 0.300583 6.71815e-21)
(1.19988 0.288414 0)
(1.20242 0.276268 -1.46713e-20)
(1.20429 0.264183 1.4375e-20)
(1.2055 0.252287 0)
(1.2061 0.240639 7.4063e-21)
(1.20616 0.229163 -3.74999e-21)
(1.20569 0.217848 -7.49144e-21)
(1.20472 0.206737 5.638e-21)
(1.20317 0.195875 -5.59458e-21)
(0.888482 0.356163 0)
(0.894638 0.363197 0)
(0.901012 0.370297 -8.87449e-22)
(0.907735 0.377436 0)
(0.91496 0.384457 0)
(0.92285 0.391404 -4.07409e-23)
(0.931433 0.397982 4.17556e-23)
(0.940775 0.404231 7.5303e-22)
(0.950973 0.41005 1.21035e-21)
(0.961866 0.415098 2.48371e-21)
(0.973552 0.419454 3.31472e-21)
(0.986033 0.423011 2.93201e-21)
(0.998986 0.425417 -2.60552e-21)
(1.01235 0.426675 2.00674e-22)
(1.02622 0.426855 -4.19795e-21)
(1.04023 0.425754 1.038e-20)
(1.05406 0.423325 -5.51786e-21)
(1.06776 0.419669 6.18916e-21)
(1.08129 0.41483 0)
(1.09435 0.408838 1.59993e-20)
(1.10665 0.401804 -1.60746e-20)
(1.11824 0.393842 -8.54557e-21)
(1.12918 0.385023 -1.88499e-20)
(1.13939 0.375446 -5.12918e-22)
(1.14863 0.365315 -3.334e-22)
(1.15687 0.354769 2.177e-20)
(1.1643 0.343807 5.77302e-21)
(1.17094 0.332501 1.70986e-20)
(1.17676 0.320932 -1.7525e-20)
(1.1817 0.309315 6.24756e-21)
(1.18579 0.297723 1.23504e-20)
(1.18917 0.286077 -1.24612e-20)
(1.19187 0.274417 0)
(1.19391 0.262787 -6.61623e-21)
(1.1953 0.251305 0)
(1.19608 0.240034 1.66421e-22)
(1.19631 0.228908 -6.59523e-21)
(1.19602 0.217921 0)
(1.19523 0.207114 6.46857e-21)
(1.19385 0.196531 1.81252e-22)
(0.89467 0.348524 6.61455e-22)
(0.900483 0.354978 -1.11432e-22)
(0.906502 0.361479 1.4246e-22)
(0.912838 0.368004 -2.58668e-24)
(0.919626 0.374412 5.56462e-22)
(0.92701 0.380744 3.50919e-23)
(0.935011 0.386741 1.91977e-22)
(0.943688 0.392439 3.68634e-22)
(0.953128 0.397753 5.93724e-22)
(0.963193 0.402385 -2.0737e-21)
(0.973972 0.406406 -1.91307e-21)
(0.985472 0.409725 0)
(0.997417 0.412025 5.6545e-21)
(1.00976 0.413308 8.41033e-23)
(1.02259 0.413633 -7.32336e-21)
(1.03559 0.412807 -4.63852e-21)
(1.04847 0.410775 4.8102e-21)
(1.06129 0.407621 5.33747e-21)
(1.074 0.403376 -5.86163e-21)
(1.08633 0.398052 0)
(1.09802 0.391731 7.49476e-21)
(1.1091 0.384513 8.45113e-21)
(1.11962 0.376462 9.71027e-22)
(1.12949 0.367662 -2.56563e-20)
(1.13848 0.358287 -8.75939e-21)
(1.14656 0.348466 0)
(1.1539 0.338206 9.86824e-21)
(1.16048 0.327575 -2.03921e-20)
(1.16631 0.316651 1.06947e-20)
(1.17128 0.30563 -3.73442e-22)
(1.17545 0.294588 1.04047e-20)
(1.17893 0.283458 2.16968e-20)
(1.18174 0.272285 -5.44792e-21)
(1.18391 0.261111 0)
(1.18544 0.25005 -5.58565e-21)
(1.18637 0.239165 5.96438e-21)
(1.18676 0.228401 0)
(1.18661 0.217753 5.71425e-21)
(1.18598 0.207264 -7.52733e-21)
(1.18475 0.196975 4.50483e-21)
(0.900279 0.341403 0)
(0.905782 0.347347 0)
(0.91148 0.353319 -3.05964e-22)
(0.917471 0.359303 -2.2858e-24)
(0.923872 0.365171 -7.73617e-22)
(0.930808 0.37096 0)
(0.938299 0.376441 2.52765e-22)
(0.946397 0.381647 -1.09399e-21)
(0.955177 0.386506 0)
(0.964521 0.390754 0)
(0.974509 0.394457 0)
(0.985151 0.397536 -2.19907e-21)
(0.996209 0.399707 2.05212e-21)
(1.00764 0.400968 -3.11639e-22)
(1.01954 0.401374 -1.60769e-22)
(1.03162 0.400743 -7.79703e-23)
(1.04364 0.399016 -3.40922e-22)
(1.05563 0.396262 -5.0231e-21)
(1.06757 0.392503 0)
(1.0792 0.387736 0)
(1.09029 0.382024 0)
(1.10085 0.375453 2.07162e-20)
(1.11092 0.368079 -1.34029e-20)
(1.12043 0.359972 1.54733e-20)
(1.12913 0.351282 4.40179e-22)
(1.13701 0.342127 -8.37016e-21)
(1.14419 0.33252 8.45117e-21)
(1.15068 0.322523 -8.95976e-21)
(1.15646 0.31221 1.78701e-20)
(1.16142 0.301762 -5.79396e-22)
(1.16562 0.291253 -9.87395e-21)
(1.16916 0.280629 -5.8235e-22)
(1.17205 0.269935 -4.53073e-21)
(1.17431 0.259215 1.00653e-20)
(1.17595 0.248577 1.69957e-22)
(1.17699 0.238082 -5.13875e-21)
(1.1775 0.227685 5.17279e-21)
(1.17749 0.217386 -1.56679e-20)
(1.17698 0.207224 3.79295e-21)
(1.17588 0.197239 1.30625e-21)
(0.905382 0.334744 -1.66469e-22)
(0.910603 0.340234 3.0805e-22)
(0.91601 0.345738 1.13956e-21)
(0.921689 0.351242 4.09778e-22)
(0.927742 0.356631 2.62105e-22)
(0.93428 0.361939 -2.91718e-23)
(0.941319 0.36696 -1.46421e-23)
(0.948905 0.371726 -2.76789e-22)
(0.957105 0.376174 1.23131e-21)
(0.965815 0.38007 -1.97373e-21)
(0.975108 0.383475 1.35224e-21)
(0.984993 0.386318 2.32579e-22)
(0.995267 0.388347 -4.19699e-21)
(1.00589 0.389559 -5.06346e-21)
(1.01695 0.390001 3.04589e-21)
(1.02821 0.389504 6.74636e-21)
(1.03943 0.388009 4.00251e-21)
(1.05066 0.385574 -1.21129e-20)
(1.06187 0.382213 0)
(1.07283 0.377914 0)
(1.08333 0.372721 5.30654e-21)
(1.09338 0.366712 1.20616e-20)
(1.103 0.359932 -1.24597e-20)
(1.11211 0.352443 -5.71504e-22)
(1.12051 0.344372 -5.13051e-22)
(1.12814 0.335827 -4.6084e-22)
(1.13515 0.326822 7.24053e-21)
(1.1415 0.317418 7.73142e-21)
(1.14718 0.307682 -1.64596e-20)
(1.15211 0.29778 7.7195e-21)
(1.15629 0.287783 8.52426e-21)
(1.15985 0.277651 -4.29747e-22)
(1.16278 0.267426 3.1128e-22)
(1.16511 0.257153 8.94618e-21)
(1.16682 0.246934 -4.50853e-21)
(1.16795 0.23683 -9.14308e-21)
(1.16855 0.226803 4.61466e-21)
(1.16864 0.216856 4.78243e-21)
(1.16825 0.207027 -2.60697e-22)
(1.16726 0.197353 0)
(0.91004 0.328499 1.11094e-21)
(0.915002 0.333584 -1.9691e-22)
(0.920144 0.338669 -5.65448e-22)
(0.925537 0.343746 -3.55651e-22)
(0.931275 0.348709 -3.59737e-23)
(0.937455 0.353587 -5.04426e-23)
(0.94409 0.358197 -3.67045e-22)
(0.95122 0.362568 4.45413e-22)
(0.958905 0.366645 0)
(0.967054 0.370219 9.90754e-22)
(0.97573 0.373346 -1.28451e-21)
(0.984944 0.375965 3.30895e-21)
(0.994519 0.377847 -5.59915e-21)
(1.00442 0.37899 2.22537e-21)
(1.01473 0.379436 5.47754e-21)
(1.02523 0.379031 -8.64691e-21)
(1.03573 0.377712 0)
(1.04626 0.375531 3.84443e-21)
(1.05678 0.372497 0)
(1.06711 0.36859 4.31306e-21)
(1.07705 0.363842 -1.49614e-20)
(1.08659 0.358321 1.00489e-20)
(1.09576 0.352064 -1.1059e-20)
(1.10448 0.345126 0)
(1.11254 0.337612 -5.97034e-21)
(1.11992 0.329622 0)
(1.12671 0.321173 -1.35615e-20)
(1.1329 0.31232 1.36921e-20)
(1.13846 0.303126 0)
(1.14331 0.293741 -1.50355e-20)
(1.14745 0.284235 -1.01565e-22)
(1.151 0.274577 7.4417e-21)
(1.15394 0.264808 -7.80232e-21)
(1.15629 0.254972 0)
(1.15805 0.245166 0)
(1.15925 0.235449 0)
(1.15993 0.225792 1.21232e-20)
(1.1601 0.216197 -4.1522e-21)
(1.1598 0.206704 -2.34119e-22)
(1.15891 0.197346 0)
(0.914306 0.322627 -2.43464e-22)
(0.919029 0.327349 -1.76545e-22)
(0.923925 0.332059 4.72481e-22)
(0.929058 0.336752 -3.24975e-22)
(0.934508 0.341333 -2.20155e-23)
(0.940362 0.345826 2.34792e-23)
(0.946632 0.350068 5.10184e-23)
(0.953353 0.354084 -3.50407e-22)
(0.960577 0.357825 1.09771e-21)
(0.968223 0.361106 8.26023e-22)
(0.976348 0.363976 0)
(0.984964 0.366381 1.50906e-21)
(0.993912 0.368117 1.96649e-22)
(1.00317 0.369181 -2.17416e-21)
(1.0128 0.36961 4.26432e-21)
(1.02262 0.369262 0)
(1.03245 0.368078 0)
(1.04233 0.366101 1.31526e-20)
(1.05222 0.363336 5.82701e-22)
(1.06195 0.35976 -4.04443e-21)
(1.07135 0.355394 8.26659e-21)
(1.0804 0.350296 -8.86408e-21)
(1.08912 0.3445 -4.40531e-21)
(1.09744 0.338052 -1.05508e-20)
(1.10518 0.331041 1.63418e-20)
(1.11228 0.323557 1.15867e-20)
(1.11884 0.315619 -2.951e-20)
(1.12484 0.307276 1.81493e-20)
(1.13025 0.298589 1.28454e-20)
(1.135 0.289692 -6.62101e-21)
(1.13907 0.280655 0)
(1.14258 0.27145 6.67001e-21)
(1.1455 0.262121 0)
(1.14787 0.25271 0)
(1.14965 0.243308 7.21804e-21)
(1.15089 0.233974 -1.43829e-20)
(1.15162 0.224682 -1.47478e-20)
(1.15186 0.215439 -7.22141e-21)
(1.15163 0.206281 -6.54055e-21)
(1.15082 0.197241 -9.16983e-22)
(0.918222 0.317095 0)
(0.922724 0.321489 0)
(0.927393 0.325861 -8.77391e-22)
(0.932284 0.330209 2.06372e-23)
(0.937469 0.334446 1.49334e-22)
(0.943027 0.338593 -1.22042e-24)
(0.948964 0.342503 -1.68118e-22)
(0.955314 0.346198 0)
(0.962122 0.349636 -5.67538e-22)
(0.969316 0.352648 -2.27077e-21)
(0.976946 0.355281 1.91091e-21)
(0.985023 0.357486 2.38046e-21)
(0.993407 0.35908 0)
(1.00208 0.360059 -3.39184e-21)
(1.01109 0.360457 -8.22511e-21)
(1.02029 0.360143 8.86926e-21)
(1.02952 0.359061 4.19654e-22)
(1.03879 0.357248 -1.76044e-20)
(1.04809 0.354706 6.57866e-21)
(1.05727 0.351409 -2.12057e-20)
(1.06615 0.347371 -5.18883e-22)
(1.07473 0.342644 5.34582e-22)
(1.08302 0.337255 5.65182e-22)
(1.09095 0.331243 9.3815e-21)
(1.09834 0.324685 3.85314e-22)
(1.10516 0.317662 -9.50011e-21)
(1.11148 0.310193 -5.40642e-21)
(1.11728 0.302324 -5.96415e-21)
(1.12253 0.294109 1.12081e-20)
(1.12714 0.285672 -6.04458e-21)
(1.13114 0.277079 0)
(1.13458 0.268308 -1.59223e-22)
(1.13747 0.259403 -1.8587e-20)
(1.13981 0.250403 -4.03056e-23)
(1.1416 0.241395 6.43996e-21)
(1.14286 0.232435 6.7307e-21)
(1.14363 0.223503 6.79577e-21)
(1.14392 0.214607 6.85031e-21)
(1.14374 0.205783 9.95234e-21)
(1.14301 0.19706 0)
(0.921827 0.311872 3.38434e-23)
(0.926123 0.315969 -4.9852e-22)
(0.93058 0.320035 4.07539e-22)
(0.935246 0.324072 -2.93836e-22)
(0.940187 0.327998 -9.23374e-23)
(0.945471 0.331833 0)
(0.951104 0.335442 1.61145e-22)
(0.957116 0.338847 0)
(0.963546 0.342009 -9.65643e-22)
(0.970329 0.344776 1.4177e-21)
(0.977511 0.347191 -1.82671e-21)
(0.985101 0.34921 -2.27388e-21)
(0.992975 0.350667 -2.58714e-21)
(1.00111 0.351559 -1.14038e-22)
(1.00957 0.351916 7.12308e-21)
(1.0182 0.351619 8.50949e-23)
(1.02687 0.350614 3.95584e-22)
(1.03559 0.348934 0)
(1.04435 0.346578 1.18054e-20)
(1.053 0.343519 -5.99351e-21)
(1.06139 0.339766 6.95842e-21)
(1.06952 0.335363 -6.9782e-21)
(1.07739 0.330333 2.30106e-20)
(1.08493 0.324711 0)
(1.09199 0.318563 0)
(1.09852 0.311959 5.63421e-22)
(1.1046 0.304921 -9.76266e-21)
(1.11018 0.29749 0)
(1.11525 0.289716 -3.96308e-22)
(1.11973 0.281711 1.03741e-20)
(1.12361 0.273538 -3.74135e-22)
(1.12698 0.265182 1.09129e-20)
(1.12981 0.256681 5.78033e-21)
(1.13212 0.248078 -1.12613e-20)
(1.1339 0.239452 -2.32277e-23)
(1.13517 0.230857 5.85552e-21)
(1.13595 0.222278 0)
(1.13627 0.213724 2.83127e-21)
(1.13615 0.20523 -3.17737e-21)
(1.13546 0.196822 -5.67925e-21)
(0.925152 0.306933 6.77137e-23)
(0.929256 0.31076 8.41547e-22)
(0.933514 0.314548 -1.02344e-22)
(0.937972 0.318302 4.56839e-22)
(0.942685 0.321946 1.34997e-22)
(0.947716 0.325498 2.96647e-23)
(0.953069 0.328836 2.82251e-22)
(0.95877 0.331977 0)
(0.964854 0.334888 1.80129e-21)
(0.971263 0.337431 0)
(0.978037 0.339645 0)
(0.985184 0.341491 0)
(0.992593 0.342818 4.79972e-21)
(1.00025 0.343624 0)
(1.00819 0.343935 3.01003e-22)
(1.0163 0.343642 -1.09986e-20)
(1.02446 0.342696 7.99433e-21)
(1.03267 0.341123 4.48458e-21)
(1.04091 0.338923 0)
(1.04908 0.336068 -5.39889e-21)
(1.05701 0.332562 -6.22064e-21)
(1.06471 0.328444 -2.73991e-24)
(1.07217 0.323735 -7.51894e-21)
(1.07935 0.318462 6.7623e-21)
(1.08608 0.312683 7.58311e-21)
(1.09232 0.306464 4.97958e-22)
(1.09814 0.299822 -8.22456e-21)
(1.10351 0.292795 -3.62179e-22)
(1.10839 0.285432 -4.03548e-22)
(1.11272 0.277833 0)