/*--------------------------------*- C++ -*----------------------------------*\
| =========                 |                                                 |
| \\      /  F ield         | OpenFOAM: The Open Source CFD Toolbox           |
|  \\    /   O peration     | Version:  3.0.1                                 |
|   \\  /    A nd           | Web:      www.OpenFOAM.org                      |
|    \\/     M anipulation  |                                                 |
\*---------------------------------------------------------------------------*/
FoamFile
{
    version     2.0;
    format      ascii;
    class       volScalarField;
    location    "500";
    object      nut;
}
// * * * * * * * * * * * * * * * * * * * * * * * * * * * * * * * * * * * * * //

dimensions      [0 2 -1 0 0 0 0];

internalField   nonuniform List<scalar> 
58000
(
0.000802021
0.000735778
0.000663883
0.000603187
0.000558869
0.00051709
0.000486732
0.000464096
0.00044582
0.00043404
0.000427026
0.000421998
0.000418435
0.000418065
0.000417633
0.000417218
0.000417013
0.000417743
0.000419064
0.000420484
0.000422077
0.000423619
0.000425329
0.000426853
0.00042814
0.000429221
0.000430025
0.000430578
0.000431012
0.000431041
0.000430779
0.000430212
0.000429047
0.000427396
0.000424846
0.000421316
0.000417256
0.000413114
0.000409104
0.000406483
0.00302569
0.00272097
0.00239779
0.00208604
0.00182783
0.00160713
0.00143307
0.00130116
0.00119384
0.00111161
0.00105065
0.00100175
0.000961059
0.000932007
0.000910232
0.000892357
0.000877747
0.000867626
0.000860449
0.000854004
0.000848659
0.000841627
0.000835088
0.000828706
0.000821478
0.000813388
0.000804638
0.000795884
0.000788047
0.000779932
0.000771304
0.000762191
0.000752922
0.000744386
0.000734894
0.000724023
0.000712362
0.000700878
0.000690561
0.0006824
0.005286
0.0049396
0.00454021
0.00410509
0.00371289
0.00335883
0.00305492
0.00280671
0.00259263
0.0024203
0.00228823
0.00217892
0.00208421
0.00201361
0.00195891
0.0019118
0.00187033
0.00183823
0.00181433
0.00179362
0.00177431
0.00175387
0.001736
0.00171986
0.00170337
0.00168608
0.00166802
0.00164998
0.00163395
0.0016164
0.0015967
0.00157526
0.0015522
0.00152837
0.00150328
0.00147624
0.001448
0.00141897
0.0013902
0.00136429
0.00751496
0.00715139
0.00671454
0.00623071
0.00576561
0.00532134
0.00492739
0.00458947
0.00428422
0.00402716
0.00382189
0.00364685
0.00349133
0.0033702
0.00327383
0.00318928
0.00311307
0.00305062
0.00300161
0.00295936
0.00291825
0.00287725
0.00284158
0.00280992
0.00277881
0.00274699
0.0027145
0.00268111
0.00264935
0.0026169
0.00258264
0.00254721
0.00250908
0.00246944
0.00242821
0.00238437
0.00233913
0.00229255
0.00224588
0.00220167
0.00971371
0.00934902
0.00890067
0.00839288
0.00789284
0.00740194
0.0069436
0.00654207
0.00616764
0.00583958
0.00556791
0.00532953
0.00511257
0.00493795
0.00479554
0.00466841
0.00455243
0.00445486
0.00437553
0.00430508
0.00423739
0.00417143
0.00411364
0.00406244
0.00401331
0.00396244
0.00390976
0.00385731
0.00380798
0.00375883
0.00370688
0.00365211
0.00359481
0.00353671
0.00347671
0.0034133
0.0033471
0.00327999
0.00321258
0.00314722
0.0118825
0.0115225
0.0110747
0.0105589
0.0100436
0.00952473
0.00903262
0.00858661
0.00816201
0.00778096
0.00745506
0.00716218
0.00688987
0.00666415
0.00647594
0.00630533
0.0061479
0.00601261
0.00590051
0.00579812
0.00570012
0.00560563
0.00552229
0.00544833
0.00537556
0.00530195
0.00522737
0.0051542
0.0050845
0.00501457
0.00494274
0.0048673
0.00478852
0.00470896
0.00462747
0.00454213
0.00445328
0.00436314
0.00427236
0.00418326
0.014026
0.0136737
0.0132323
0.0127185
0.0121994
0.011669
0.0111566
0.0106842
0.0102244
0.00980215
0.00943496
0.00909875
0.00878017
0.00850799
0.00827676
0.00806441
0.00786711
0.00769338
0.00754529
0.00740981
0.00728026
0.00715563
0.00704492
0.00694429
0.00684617
0.00674783
0.00664929
0.00655168
0.00645972
0.0063673
0.00627178
0.00617372
0.00607168
0.0059678
0.0058633
0.00575457
0.00564168
0.00552681
0.00541081
0.00529603
0.0161484
0.0158052
0.0153728
0.0148658
0.0143479
0.0138168
0.0132956
0.0128089
0.0123265
0.0118761
0.0114755
0.0111026
0.0107449
0.0104355
0.0101674
0.00991683
0.00967968
0.00946863
0.0092863
0.00911847
0.00895735
0.00880225
0.00866133
0.00853314
0.00840918
0.00828439
0.00815886
0.00803572
0.00791802
0.007801
0.00768148
0.00755808
0.00743152
0.00730271
0.00717339
0.00703959
0.00690168
0.0067602
0.00661716
0.00647501
0.0182533
0.0179197
0.0174981
0.017001
0.0164894
0.0159618
0.0154385
0.0149448
0.0144494
0.0139793
0.0135563
0.0131565
0.0127664
0.0124236
0.0121224
0.011838
0.011566
0.0113207
0.0111059
0.0109075
0.010715
0.0105278
0.0103566
0.0102007
0.0100483
0.00989573
0.00974331
0.00959257
0.00944915
0.00930653
0.00916117
0.0090115
0.00885839
0.00870307
0.00854749
0.00838724
0.00822232
0.00805329
0.00788224
0.00771164
0.0203437
0.02002
0.0196097
0.0191242
0.0186215
0.0181004
0.0175791
0.0170819
0.0165814
0.0160999
0.0156611
0.0152401
0.0148268
0.0144577
0.0141287
0.0138147
0.0135117
0.0132349
0.0129888
0.0127583
0.0125352
0.0123187
0.012118
0.0119327
0.0117528
0.0115722
0.0113909
0.0112126
0.0110413
0.0108723
0.0106993
0.0105229
0.0103416
0.0101595
0.00997718
0.00978983
0.00959698
0.00939942
0.00919941
0.00899941
0.022422
0.0221081
0.0217093
0.0212361
0.0207439
0.0202315
0.0197154
0.0192195
0.0187171
0.018229
0.0177796
0.0173441
0.0169126
0.0165206
0.0161674
0.0158276
0.0154972
0.0151922
0.0149182
0.0146593
0.0144079
0.0141609
0.0139312
0.0137185
0.0135098
0.0133018
0.0130923
0.0128858
0.0126865
0.0124901
0.0122897
0.0120857
0.011876
0.0116662
0.0114562
0.0112418
0.0110198
0.0107928
0.010563
0.0103329
0.0244902
0.0241858
0.0237986
0.0233379
0.0228569
0.0223544
0.0218457
0.0213536
0.0208523
0.020361
0.0199033
0.0194589
0.0190145
0.0186059
0.0182336
0.0178722
0.0175178
0.0171876
0.0168877
0.0166023
0.0163221
0.0160467
0.0157896
0.0155481
0.0153118
0.0150746
0.0148373
0.0146019
0.0143742
0.0141499
0.0139235
0.0136924
0.0134546
0.0132164
0.0129783
0.0127354
0.0124845
0.0122279
0.0119681
0.0117074
0.0265499
0.0262547
0.0258787
0.0254307
0.0249613
0.0244694
0.0239691
0.0234827
0.0229848
0.0224934
0.0220317
0.0215801
0.0211247
0.0207042
0.0203168
0.019937
0.0195609
0.0192081
0.018885
0.0185764
0.0182712
0.017969
0.0176842
0.0174152
0.0171502
0.0168842
0.0166185
0.0163569
0.0161022
0.0158504
0.0155968
0.0153382
0.015072
0.0148045
0.0145382
0.0142669
0.0139869
0.0137007
0.0134107
0.0131192
0.0286021
0.0283159
0.0279509
0.0275154
0.0270577
0.0265768
0.0260858
0.0256061
0.0251131
0.0246239
0.0241607
0.0237051
0.0232425
0.0228118
0.0224112
0.0220153
0.0216232
0.0212515
0.0209071
0.0205746
0.0202458
0.0199181
0.0196048
0.0193096
0.0190202
0.0187281
0.018435
0.0181456
0.0178648
0.0175858
0.0173037
0.0170181
0.016724
0.0164278
0.0161326
0.0158328
0.0155238
0.0152079
0.0148875
0.0145651
0.0306475
0.03037
0.030016
0.0295928
0.0291469
0.0286771
0.0281958
0.0277236
0.0272366
0.0267508
0.0262882
0.0258305
0.0253634
0.0249248
0.0245126
0.0241052
0.0236994
0.0233114
0.0229482
0.0225941
0.0222396
0.0218885
0.0215517
0.0212315
0.0209163
0.0206002
0.0202813
0.0199651
0.0196584
0.0193525
0.0190425
0.0187285
0.0184071
0.0180827
0.0177587
0.0174303
0.0170922
0.0167465
0.0163958
0.0160423
0.0326864
0.0324177
0.0320745
0.0316637
0.0312296
0.030771
0.0302996
0.0298353
0.029355
0.0288737
0.0284128
0.0279548
0.0274852
0.0270411
0.0266206
0.0262031
0.0257853
0.0253831
0.0250033
0.0246303
0.024254
0.0238793
0.0235204
0.0231766
0.022837
0.0224969
0.0221529
0.0218108
0.0214785
0.0211463
0.0208092
0.020468
0.0201188
0.0197661
0.0194136
0.0190566
0.0186893
0.0183139
0.0179328
0.0175483
0.0347194
0.0344596
0.0341271
0.0337286
0.0333063
0.0328589
0.0323975
0.0319414
0.0314681
0.0309922
0.0305339
0.0300766
0.0296061
0.0291582
0.0287313
0.0283055
0.0278775
0.0274629
0.0270684
0.0266784
0.026283
0.0258874
0.0255072
0.0251407
0.0247775
0.0244138
0.0240457
0.0236785
0.023321
0.0229631
0.0225993
0.0222302
0.0218546
0.0214746
0.021094
0.0207087
0.0203124
0.0199074
0.0194961
0.0190807
0.0367472
0.0364961
0.0361743
0.0357881
0.0353776
0.0349412
0.0344898
0.0340421
0.0335761
0.0331059
0.0326511
0.0321954
0.031725
0.0312746
0.0308427
0.0304101
0.0299735
0.0295479
0.0291402
0.0287351
0.0283223
0.0279077
0.0275072
0.0271195
0.0267337
0.0263461
0.0259556
0.0255645
0.0251813
0.0247993
0.0244102
0.0240148
0.0236129
0.0232058
0.0227974
0.0223839
0.0219589
0.0215247
0.0210834
0.0206372
0.03877
0.0385273
0.038216
0.0378421
0.0374446
0.0370181
0.0365766
0.0361373
0.035679
0.0352148
0.034764
0.0343106
0.0338412
0.0333894
0.0329536
0.0325154
0.0320713
0.0316362
0.0312167
0.0307977
0.0303692
0.0299368
0.0295165
0.0291096
0.028703
0.0282936
0.0278811
0.0274668
0.0270596
0.0266536
0.0262397
0.0258187
0.0253909
0.0249571
0.0245212
0.0240798
0.0236265
0.0231634
0.0226925
0.0222161
0.0407879
0.0405534
0.0402523
0.03989
0.039504
0.0390886
0.0386575
0.0382272
0.0377765
0.0373188
0.0368723
0.036422
0.0359543
0.0355019
0.0350632
0.0346204
0.0341699
0.0337262
0.0332959
0.0328644
0.0324215
0.0319731
0.0315349
0.0311095
0.0306831
0.0302527
0.0298191
0.0293827
0.0289523
0.028523
0.028085
0.0276391
0.0271861
0.0267262
0.0262632
0.0257933
0.0253128
0.0248215
0.0243217
0.0238154
0.0428006
0.0425743
0.0422832
0.0419326
0.0415573
0.0411529
0.0407324
0.0403124
0.0398688
0.0394175
0.0389759
0.0385291
0.0380639
0.0376116
0.0371709
0.0367242
0.0362682
0.0358168
0.0353765
0.0349333
0.0344772
0.034014
0.0335595
0.0331165
0.0326713
0.0322209
0.0317667
0.0313092
0.0308567
0.0304048
0.0299436
0.0294738
0.0289963
0.028511
0.0280216
0.0275247
0.027017
0.0264979
0.0259695
0.0254336
0.044808
0.0445896
0.0443085
0.0439704
0.0436047
0.0432107
0.0428004
0.0423893
0.0419541
0.0415103
0.0410744
0.0406317
0.0401698
0.0397183
0.0392764
0.0388264
0.0383654
0.0379069
0.0374573
0.0370031
0.0365346
0.0360577
0.0355879
0.0351285
0.0346654
0.0341959
0.0337209
0.033244
0.0327705
0.0322959
0.0318135
0.0313208
0.0308194
0.0303094
0.0297946
0.0292715
0.0287372
0.0281907
0.0276342
0.0270694
0.0468096
0.0465988
0.0463273
0.046
0.045645
0.0452618
0.0448619
0.0444594
0.0440326
0.0435967
0.0431681
0.0427292
0.042272
0.0418211
0.0413796
0.0409266
0.0404611
0.0399957
0.039537
0.039072
0.038592
0.0381024
0.0376182
0.0371433
0.0366635
0.0361763
0.0356826
0.0351865
0.0346928
0.0341971
0.0336932
0.0331781
0.0326534
0.0321196
0.0315802
0.0310319
0.0304716
0.0298985
0.0293145
0.0287213
0.048805
0.0486018
0.0483398
0.0480227
0.0476783
0.047306
0.0469175
0.0465227
0.046104
0.0456757
0.0452532
0.0448192
0.044366
0.0439172
0.0434761
0.0430231
0.0425546
0.0420823
0.0416146
0.0411381
0.0406477
0.0401463
0.0396487
0.0391589
0.0386639
0.0381602
0.037649
0.0371348
0.0366218
0.0361058
0.0355811
0.0350441
0.034496
0.0339398
0.033377
0.0328042
0.0322188
0.0316198
0.031009
0.030388
0.0507935
0.0505981
0.0503464
0.0500384
0.0497041
0.0493425
0.0489638
0.0485777
0.0481678
0.0477475
0.0473312
0.0469024
0.0464533
0.0460068
0.0455657
0.0451114
0.0446404
0.0441645
0.0436896
0.0432023
0.0427012
0.0421883
0.0416778
0.041173
0.0406648
0.0401462
0.0396185
0.039087
0.0385557
0.0380204
0.0374757
0.036918
0.036348
0.0357697
0.035184
0.0345875
0.0339777
0.0333534
0.0327165
0.0320684
0.0527743
0.0525865
0.0523434
0.0520455
0.0517218
0.0513719
0.0510018
0.0506244
0.0502236
0.0498128
0.0494021
0.0489795
0.0485339
0.0480909
0.0476492
0.0471932
0.0467189
0.0462379
0.0457559
0.0452603
0.04475
0.0442268
0.0437045
0.0431864
0.0426644
0.0421316
0.0415889
0.0410414
0.0404927
0.0399391
0.0393754
0.0387978
0.0382073
0.0376077
0.0369998
0.0363803
0.0357469
0.0350982
0.0344358
0.0337614
0.0547468
0.0545674
0.0543317
0.0540436
0.0537303
0.0533906
0.0530302
0.0526619
0.0522705
0.0518677
0.0514637
0.0510465
0.0506056
0.0501655
0.0497258
0.0492688
0.0487903
0.0483037
0.0478134
0.047311
0.0467927
0.0462604
0.0457274
0.0451969
0.0446607
0.0441155
0.0435591
0.0429966
0.0424317
0.0418606
0.0412786
0.0406822
0.0400722
0.0394523
0.0388232
0.0381817
0.0375254
0.036853
0.036166
0.035466
0.0567094
0.056537
0.0563099
0.0560322
0.0557304
0.0553996
0.0550489
0.0546901
0.054309
0.0539135
0.053517
0.0531043
0.0526691
0.0522308
0.0517914
0.0513334
0.0508535
0.0503621
0.0498641
0.0493544
0.0488285
0.0482878
0.0477452
0.0472038
0.0466555
0.0460979
0.0455284
0.0449518
0.0443715
0.0437836
0.0431831
0.0425698
0.0419416
0.0413025
0.0406531
0.0399903
0.039312
0.0386168
0.037906
0.0371812
0.0586617
0.0584961
0.0582778
0.0580104
0.0577186
0.0573978
0.0570572
0.0567078
0.0563357
0.0559484
0.0555582
0.0551511
0.0547207
0.0542864
0.0538476
0.0533872
0.052904
0.0524069
0.0519042
0.0513886
0.050856
0.050308
0.0497569
0.0492056
0.0486465
0.0480774
0.0474956
0.0469059
0.0463112
0.0457078
0.0450908
0.0444606
0.0438149
0.0431573
0.0424884
0.0418053
0.0411059
0.0403886
0.0396549
0.0389061
0.0606032
0.0604444
0.0602352
0.0599788
0.0596956
0.0593849
0.0590549
0.058716
0.0583517
0.0579732
0.0575886
0.0571879
0.0567609
0.0563287
0.05589
0.0554297
0.0549436
0.0544412
0.0539334
0.0534126
0.0528742
0.0523198
0.0517611
0.051201
0.0506322
0.0500527
0.0494597
0.0488578
0.0482497
0.0476318
0.0469996
0.0463534
0.0456909
0.0450157
0.0443283
0.0436257
0.042906
0.0421676
0.0414118
0.0406399
0.0625329
0.0623807
0.0621811
0.0619334
0.06166
0.0613602
0.0610417
0.0607109
0.0603551
0.0599844
0.0596064
0.0592115
0.0587899
0.0583593
0.0579188
0.0574571
0.0569664
0.0564616
0.0559503
0.0554252
0.054882
0.0543222
0.0537569
0.0531891
0.0526116
0.0520227
0.0514194
0.0508064
0.0501859
0.0495546
0.0489081
0.0482469
0.0475686
0.0468767
0.0461717
0.0454506
0.0447115
0.0439529
0.0431759
0.0423818
0.0644497
0.0643034
0.064112
0.0638738
0.0636109
0.0633231
0.0630139
0.0626925
0.0623467
0.061983
0.0616121
0.0612225
0.0608043
0.0603736
0.0599326
0.0594667
0.0589747
0.0584681
0.0579541
0.0574256
0.0568786
0.0563143
0.0557434
0.0551688
0.0545837
0.0539864
0.0533739
0.0527506
0.0521188
0.0514752
0.0508154
0.0501402
0.049447
0.0487394
0.0480176
0.0472789
0.0465215
0.0457435
0.0449463
0.0441311
0.0663528
0.0662123
0.0660285
0.0658001
0.0655477
0.0652703
0.0649715
0.0646606
0.0643229
0.0639674
0.0636014
0.0632168
0.0628005
0.0623714
0.0619286
0.061461
0.0609679
0.0604601
0.0599441
0.0594131
0.0588632
0.0582953
0.0577198
0.0571395
0.0565477
0.055943
0.0553222
0.0546897
0.0540475
0.0533925
0.0527204
0.0520321
0.0513249
0.0506026
0.0498652
0.0491101
0.0483351
0.0475388
0.0467223
0.0458869
0.0682415
0.0681064
0.0679304
0.067712
0.0674707
0.0672027
0.0669146
0.066612
0.0662837
0.065935
0.0655747
0.0651922
0.0647787
0.0643493
0.063906
0.0634381
0.062945
0.0624368
0.0619197
0.0613871
0.060835
0.0602645
0.0596854
0.0591003
0.0585029
0.0578917
0.0572636
0.0566228
0.0559712
0.0553057
0.0546223
0.0539218
0.0532016
0.0524656
0.0517137
0.0509432
0.0501518
0.0493379
0.0485031
0.0476485
0.0701148
0.0699849
0.0698163
0.0696085
0.0693762
0.0691187
0.0688394
0.0685465
0.0682261
0.0678861
0.0675295
0.0671488
0.0667358
0.0663071
0.0658644
0.0653973
0.0649052
0.0643975
0.0638802
0.0633467
0.0627934
0.0622212
0.0616393
0.0610505
0.0604485
0.0598317
0.0591972
0.058549
0.0578889
0.0572139
0.0565201
0.0558085
0.0550762
0.0543275
0.0535622
0.0527784
0.0519706
0.05114
0.0502877
0.0494151
0.071972
0.0718468
0.0716847
0.0714855
0.0712636
0.0710148
0.0707457
0.0704608
0.0701498
0.069814
0.0694616
0.0690823
0.0686713
0.0682446
0.0678036
0.0673384
0.0668481
0.0663418
0.065825
0.0652916
0.0647378
0.0641647
0.063581
0.0629894
0.0623841
0.0617626
0.0611224
0.0604676
0.0597998
0.0591163
0.0584131
0.0576913
0.0569479
0.0561873
0.0554093
0.054612
0.0537897
0.0529436
0.0520752
0.0511859
0.0738124
0.0736916
0.0735352
0.0733433
0.0731297
0.072891
0.0726301
0.0723551
0.0720494
0.0717197
0.0713698
0.0709931
0.0705855
0.0701618
0.0697235
0.069261
0.0687734
0.0682692
0.0677537
0.067221
0.0666676
0.0660943
0.0655097
0.0649165
0.0643097
0.0636834
0.0630381
0.0623776
0.0617031
0.061012
0.0603005
0.0595693
0.0588156
0.058044
0.057254
0.056444
0.0556082
0.0547479
0.0538647
0.0529601
0.0756354
0.0755187
0.0753674
0.0751819
0.0749753
0.0747445
0.0744925
0.0742238
0.0739258
0.0736021
0.073255
0.072882
0.0724786
0.0720589
0.0716241
0.071165
0.0706807
0.0701793
0.0696659
0.0691346
0.0685822
0.0680094
0.0674245
0.06683
0.0662215
0.0655923
0.0649433
0.064278
0.0635979
0.0629002
0.0621814
0.0614418
0.0606786
0.0598967
0.0590957
0.0582738
0.0574255
0.0565522
0.0556555
0.0547371
0.0774405
0.0773276
0.0771812
0.0770014
0.0768009
0.0765767
0.0763314
0.0760688
0.0757773
0.0754594
0.0751174
0.0747493
0.074351
0.073936
0.0735052
0.0730501
0.0725697
0.0720718
0.0715609
0.0710317
0.0704809
0.0699093
0.0693248
0.0687298
0.0681199
0.0674889
0.0668371
0.0661682
0.0654832
0.0647799
0.0640558
0.0633077
0.0625356
0.0617444
0.0609332
0.0601005
0.0592408
0.0583556
0.0574467
0.0565162
0.0792271
0.0791179
0.078976
0.0788016
0.0786067
0.0783883
0.078149
0.0778921
0.0776065
0.0772946
0.0769582
0.0765955
0.0762028
0.0757929
0.0753668
0.0749161
0.0744401
0.0739461
0.0734383
0.0729117
0.0723632
0.0717934
0.0712099
0.070615
0.0700047
0.0693726
0.0687194
0.0680473
0.0673581
0.0666496
0.0659195
0.0651647
0.0643853
0.063586
0.0627657
0.0619232
0.0610533
0.0601574
0.0592376
0.0582968
0.0809946
0.0808888
0.0807513
0.0805821
0.0803925
0.0801796
0.0799459
0.0796945
0.0794146
0.0791085
0.0787778
0.0784208
0.0780341
0.0776296
0.0772085
0.0767627
0.0762914
0.0758017
0.0752975
0.0747741
0.0742284
0.073661
0.0730793
0.0724852
0.0718751
0.071243
0.0705901
0.0699149
0.0692218
0.0685085
0.0677719
0.067012
0.0662268
0.0654205
0.0645919
0.063741
0.062862
0.0619567
0.0610276
0.0600783
0.082742
0.0826397
0.0825064
0.0823422
0.0821577
0.0819502
0.0817219
0.0814757
0.0812016
0.0809013
0.0805763
0.0802252
0.0798445
0.0794458
0.0790298
0.0785892
0.0781231
0.077638
0.0771379
0.076618
0.0760757
0.0755114
0.0749321
0.0743397
0.0737304
0.0730987
0.0724455
0.0717689
0.0710732
0.0703563
0.0696151
0.0688496
0.0680597
0.0672476
0.0664121
0.0655534
0.0646664
0.0637528
0.0628158
0.06186
0.0844687
0.0843698
0.0842405
0.0840812
0.0839017
0.0836994
0.0834765
0.0832355
0.082967
0.0826725
0.0823533
0.0820081
0.0816336
0.0812408
0.0808303
0.0803951
0.0799343
0.0794543
0.0789586
0.0784428
0.0779044
0.0773438
0.0767677
0.0761779
0.0755701
0.0749391
0.0742861
0.0736088
0.0729115
0.0721922
0.0714479
0.0706786
0.0698845
0.069067
0.0682252
0.0673597
0.0664655
0.0655449
0.0646015
0.0636412
0.086174
0.0860782
0.085953
0.0857984
0.0856237
0.0854266
0.085209
0.0849732
0.0847102
0.0844216
0.0841083
0.0837691
0.0834009
0.0830141
0.0826092
0.0821796
0.0817246
0.0812499
0.080759
0.0802477
0.0797136
0.0791573
0.0785852
0.0779999
0.0773934
0.0767639
0.0761114
0.075434
0.0747359
0.0740153
0.0732692
0.0724972
0.0717005
0.0708775
0.07003
0.0691586
0.0682583
0.0673318
0.0663835
0.0654211
0.0878568
0.0877642
0.0876429
0.0874929
0.0873231
0.0871311
0.0869187
0.0866881
0.0864307
0.0861479
0.0858405
0.0855074
0.0851456
0.0847649
0.0843659
0.0839421
0.083493
0.0830239
0.0825382
0.0820318
0.0815026
0.0809509
0.0803831
0.0798017
0.0791983
0.0785725
0.0779203
0.0772433
0.0765452
0.0758244
0.0750784
0.0743037
0.0735041
0.0726772
0.0718252
0.0709488
0.0700435
0.0691124
0.0681609
0.0671987
0.0895166
0.0894271
0.0893096
0.0891641
0.088999
0.088812
0.0886048
0.0883794
0.0881276
0.0878507
0.0875493
0.0872223
0.086867
0.0864926
0.0860995
0.0856818
0.0852388
0.0847756
0.0842954
0.0837944
0.0832704
0.082724
0.082161
0.0815836
0.0809836
0.0803609
0.0797109
0.0790353
0.0783383
0.0776182
0.076872
0.0760962
0.0752944
0.0744646
0.0736093
0.0727291
0.07182
0.0708856
0.0699325
0.0689729
0.0911525
0.091066
0.0909522
0.0908112
0.0906508
0.0904687
0.0902666
0.0900464
0.0898002
0.0895292
0.0892339
0.0889132
0.0885644
0.0881963
0.0878094
0.0873979
0.0869612
0.0865042
0.0860299
0.0855347
0.0850165
0.084476
0.0839186
0.0833455
0.0827493
0.0821298
0.0814824
0.0808092
0.0801141
0.0793966
0.07865
0.0778742
0.0770703
0.0762382
0.0753813
0.0744985
0.0735866
0.0726501
0.0716971
0.0707426
0.0927638
0.0926802
0.0925701
0.0924334
0.0922775
0.0921003
0.0919033
0.0916883
0.0914478
0.0911829
0.0908937
0.0905792
0.0902371
0.0898754
0.0894946
0.0890895
0.0886594
0.0882089
0.0877408
0.0872517
0.0867399
0.0862059
0.0856559
0.0850868
0.0844949
0.0838788
0.0832345
0.0825639
0.0818711
0.0811555
0.08041
0.0796346
0.0788298
0.0779976
0.0771412
0.076256
0.0753421
0.0744047
0.0734533
0.0725065
0.0943497
0.094269
0.0941624
0.09403
0.0938786
0.0937062
0.0935143
0.0933045
0.0930697
0.0928109
0.092528
0.0922199
0.0918843
0.0915291
0.0911546
0.090756
0.0903327
0.0898889
0.0894274
0.0889449
0.0884397
0.0879127
0.0873691
0.0868057
0.0862201
0.0856071
0.084966
0.0842987
0.0836086
0.0828952
0.0821516
0.0813774
0.0805732
0.0797413
0.078885
0.0779992
0.0770848
0.0761478
0.0751998
0.0742631
0.0959097
0.0958318
0.0957287
0.0956004
0.0954534
0.0952858
0.0950989
0.0948942
0.0946652
0.0944127
0.0941366
0.0938346
0.0935053
0.0931565
0.0927885
0.0923966
0.0919803
0.0915435
0.0910889
0.0906134
0.0901156
0.089596
0.0890589
0.0885012
0.087921
0.0873125
0.0866757
0.0860124
0.0853258
0.0846153
0.083874
0.0831018
0.0822992
0.0814684
0.0806126
0.0797272
0.0788134
0.0778782
0.0769352
0.076011
0.0974432
0.0973679
0.0972682
0.097144
0.0970013
0.0968384
0.0966564
0.0964568
0.0962335
0.0959875
0.0957193
0.0954223
0.0950993
0.094757
0.0943955
0.0940106
0.0936014
0.093172
0.0927246
0.0922566
0.0917668
0.0912563
0.090725
0.0901733
0.0895983
0.0889948
0.0883628
0.0877042
0.0870221
0.086315
0.0855766
0.084807
0.0840066
0.0831776
0.0823233
0.0814392
0.080527
0.0795948
0.0786581
0.0777488
0.0989495
0.0988768
0.0987805
0.0986602
0.0985218
0.0983634
0.0981863
0.0979917
0.0977739
0.097534
0.0972722
0.0969816
0.0966653
0.0963297
0.0959751
0.0955973
0.0951956
0.0947737
0.0943339
0.0938738
0.0933924
0.0928897
0.0923656
0.0918218
0.0912515
0.090653
0.0900264
0.0893733
0.0886975
0.0879934
0.0872582
0.0864918
0.0856944
0.084868
0.0840159
0.083134
0.0822245
0.0812962
0.0803673
0.0794748
0.100428
0.100358
0.100265
0.100149
0.100014
0.0998604
0.099688
0.0994984
0.099286
0.0990519
0.0987962
0.0985122
0.0982029
0.0978743
0.0975267
0.0971562
0.0967621
0.096348
0.0959161
0.0954644
0.0949928
0.094497
0.0939802
0.0934429
0.0928784
0.0922859
0.0916657
0.0910182
0.0903477
0.0896481
0.0889172
0.0881549
0.0873613
0.0865384
0.0856894
0.0848106
0.0839047
0.0829814
0.0820615
0.0811877
0.101879
0.101811
0.101721
0.101609
0.101478
0.101329
0.101161
0.100976
0.100769
0.100541
0.100292
0.100014
0.0997118
0.0993904
0.0990499
0.0986868
0.0983006
0.0978945
0.0974707
0.0970274
0.0965642
0.0960767
0.0955689
0.0950371
0.0944786
0.0938926
0.0932804
0.0926382
0.0919728
0.0912785
0.0905527
0.0897952
0.0890063
0.0881876
0.0873428
0.0864681
0.0855667
0.0846493
0.0837394
0.0828858
0.103301
0.103236
0.103149
0.10304
0.102914
0.102768
0.102605
0.102426
0.102224
0.102001
0.101758
0.101487
0.101192
0.100877
0.100544
0.100189
0.0998106
0.0994128
0.0989974
0.0985629
0.0981079
0.0976287
0.0971282
0.0966029
0.0960508
0.0954716
0.0948665
0.0942313
0.0935721
0.0928835
0.0921635
0.0914118
0.0906285
0.089815
0.0889753
0.0881056
0.0872095
0.0862989
0.0853998
0.0845676
0.104694
0.104631
0.104547
0.104442
0.10432
0.104179
0.10402
0.103845
0.103649
0.103432
0.103195
0.102931
0.102642
0.102335
0.102009
0.101662
0.101292
0.100902
0.100496
0.100071
0.0996237
0.0991534
0.0986588
0.0981399
0.0975945
0.0970222
0.0964245
0.0957978
0.0951447
0.0944625
0.093749
0.0930038
0.0922269
0.0914198
0.090586
0.0897222
0.0888322
0.0879291
0.0870415
0.0862318
0.106058
0.105998
0.105917
0.105815
0.105696
0.10556
0.105406
0.105235
0.105044
0.104833
0.104602
0.104345
0.104064
0.103764
0.103445
0.103105
0.102743
0.102363
0.101965
0.101549
0.10111
0.100647
0.100159
0.0996473
0.099109
0.0985439
0.0979533
0.0973346
0.096689
0.0960142
0.0953082
0.0945704
0.0938006
0.0930014
0.0921746
0.0913173
0.0904341
0.0895391
0.0886636
0.0878769
0.107393
0.107335
0.107257
0.107158
0.107043
0.106911
0.106761
0.106596
0.10641
0.106205
0.10598
0.105729
0.105455
0.105162
0.104851
0.104519
0.104166
0.103794
0.103407
0.102997
0.102566
0.10211
0.101629
0.101125
0.100594
0.100036
0.0994522
0.0988423
0.0982049
0.0975385
0.0968407
0.0961113
0.09535
0.0945605
0.0937405
0.0928901
0.0920144
0.091128
0.0902651
0.0895018
0.108698
0.108642
0.108567
0.108472
0.108361
0.108232
0.108087
0.107926
0.107745
0.107546
0.107327
0.107084
0.106817
0.106531
0.106227
0.105902
0.105558
0.105196
0.104816
0.104413
0.10399
0.103541
0.103068
0.102572
0.10205
0.1015
0.100924
0.100322
0.099693
0.0990351
0.0983462
0.0976257
0.0968737
0.0960934
0.0952818
0.0944396
0.0935721
0.092695
0.0918449
0.0911052
0.109974
0.10992
0.109847
0.109756
0.109648
0.109523
0.109383
0.109226
0.109051
0.108857
0.108644
0.108409
0.108148
0.107869
0.107572
0.107255
0.106919
0.106566
0.106192
0.105797
0.105381
0.104941
0.104477
0.103989
0.103475
0.102935
0.102367
0.101773
0.101153
0.100505
0.099825
0.099114
0.0983716
0.0976009
0.0967986
0.0959654
0.0951068
0.0942394
0.0934023
0.092686
0.11122
0.111168
0.111098
0.111009
0.110905
0.110785
0.110648
0.110496
0.110326
0.110137
0.109931
0.109703
0.109448
0.109176
0.108886
0.108577
0.108251
0.107904
0.107538
0.10715
0.10674
0.106309
0.105854
0.105376
0.104871
0.10434
0.103782
0.103196
0.102585
0.101946
0.101277
0.100575
0.0998437
0.0990833
0.0982908
0.0974671
0.096618
0.0957607
0.0949366
0.0942435
0.112436
0.112386
0.112319
0.112233
0.112132
0.112016
0.111883
0.111736
0.11157
0.111387
0.111186
0.110965
0.110717
0.110452
0.11017
0.109868
0.10955
0.109211
0.108852
0.108472
0.10807
0.107648
0.107202
0.106733
0.106238
0.105716
0.105168
0.104592
0.10399
0.103361
0.102701
0.102011
0.101291
0.100541
0.0997584
0.0989446
0.0981054
0.0972585
0.0964474
0.0957767
0.113623
0.113575
0.113509
0.113427
0.11333
0.113217
0.113088
0.112945
0.112784
0.112606
0.112412
0.112196
0.111956
0.111698
0.111423
0.111128
0.110817
0.110486
0.110135
0.109764
0.10937
0.108956
0.10852
0.10806
0.107575
0.107063
0.106525
0.10596
0.105368
0.104748
0.104099
0.103421
0.102713
0.101973
0.101201
0.100398
0.0995685
0.0987322
0.0979339
0.0972851
0.11478
0.114733
0.114671
0.114591
0.114497
0.114388
0.114263
0.114124
0.113968
0.113796
0.113607
0.113398
0.113165
0.112914
0.112645
0.112358
0.112052
0.11173
0.111388
0.111025
0.11064
0.110235
0.109807
0.109357
0.108882
0.108381
0.107853
0.107298
0.106717
0.106109
0.105471
0.104804
0.104108
0.103379
0.102618
0.101825
0.101007
0.100181
0.0993957
0.0987679
0.115907
0.115863
0.115802
0.115726
0.115635
0.115529
0.115408
0.115274
0.115122
0.114955
0.114771
0.114569
0.114344
0.1141
0.113838
0.113558
0.113259
0.112944
0.112611
0.112256
0.11188
0.111482
0.111065
0.110624
0.110159
0.109669
0.109152
0.108608
0.108038
0.107441
0.106815
0.106159
0.105475
0.104758
0.104009
0.103227
0.10242
0.101605
0.100832
0.100225
0.117005
0.116963
0.116904
0.11683
0.116743
0.11664
0.116524
0.116393
0.116246
0.116084
0.115906
0.11571
0.115493
0.115255
0.115
0.114727
0.114436
0.114129
0.113803
0.113457
0.11309
0.112701
0.112293
0.111862
0.111407
0.110927
0.110421
0.109889
0.10933
0.108745
0.10813
0.107487
0.106815
0.10611
0.105373
0.104603
0.103807
0.103004
0.102243
0.101655
0.118074
0.118033
0.117977
0.117906
0.117821
0.117722
0.117609
0.117483
0.117341
0.117183
0.117011
0.116821
0.116611
0.116381
0.116133
0.115867
0.115583
0.115283
0.114966
0.114628
0.11427
0.11389
0.113491
0.11307
0.112626
0.112157
0.111662
0.11114
0.110594
0.11002
0.109418
0.108789
0.108129
0.107436
0.10671
0.105952
0.105168
0.104377
0.103628
0.103057
0.119115
0.119075
0.119021
0.118953
0.118871
0.118775
0.118666
0.118543
0.118406
0.118253
0.118086
0.117902
0.117699
0.117476
0.117235
0.116977
0.1167
0.116407
0.116098
0.11577
0.11542
0.11505
0.114659
0.114249
0.113815
0.113356
0.112873
0.112363
0.111828
0.111266
0.110677
0.11006
0.109413
0.108733
0.10802
0.107275
0.106503
0.105723
0.104986
0.104433
0.120126
0.120088
0.120036
0.11997
0.119892
0.119799
0.119694
0.119575
0.119442
0.119294
0.119132
0.118954
0.118758
0.118542
0.118309
0.118058
0.117789
0.117503
0.117202
0.116882
0.116542
0.11618
0.115799
0.115398
0.114975
0.114527
0.114054
0.113556
0.113033
0.112484
0.111906
0.111303
0.110669
0.110002
0.109302
0.10857
0.107811
0.107043
0.106318
0.10578
0.12111
0.121073
0.121023
0.12096
0.120884
0.120795
0.120693
0.120578
0.120449
0.120306
0.120149
0.119977
0.119787
0.119581
0.119353
0.119109
0.118847
0.11857
0.118277
0.117965
0.117634
0.117282
0.11691
0.116518
0.116105
0.115668
0.115207
0.114721
0.11421
0.113672
0.113108
0.112518
0.111896
0.111243
0.110556
0.109838
0.109092
0.108336
0.107622
0.1071
0.122065
0.12203
0.121982
0.121921
0.121848
0.121762
0.121664
0.121553
0.121428
0.121289
0.121138
0.120971
0.120788
0.120588
0.120368
0.120131
0.119878
0.119608
0.119321
0.119019
0.118697
0.118355
0.117993
0.11761
0.117207
0.116781
0.116331
0.115857
0.115358
0.114832
0.114282
0.113705
0.113097
0.112456
0.111783
0.111078
0.110346
0.109602
0.108899
0.10839
0.122993
0.12296
0.122914
0.122855
0.122785
0.122702
0.122607
0.122499
0.122379
0.122245
0.122098
0.121937
0.12176
0.121567
0.121354
0.121125
0.120879
0.120617
0.120339
0.120045
0.119732
0.119399
0.119047
0.118674
0.118281
0.117865
0.117427
0.116964
0.116477
0.115965
0.115429
0.114864
0.114269
0.113642
0.112983
0.112292
0.111572
0.110841
0.110149
0.109653
0.123894
0.123862
0.123818
0.123762
0.123694
0.123614
0.123522
0.123419
0.123302
0.123173
0.123031
0.122875
0.122704
0.122517
0.122313
0.122092
0.121853
0.121599
0.121329
0.121043
0.120739
0.120415
0.120073
0.11971
0.119327
0.118922
0.118494
0.118043
0.117568
0.117069
0.116547
0.115995
0.115413
0.1148
0.114154
0.113477
0.112771
0.112052
0.111371
0.110886
0.124769
0.124738
0.124696
0.124641
0.124576
0.124499
0.124411
0.124311
0.124198
0.124073
0.123936
0.123785
0.12362
0.123441
0.123245
0.123031
0.1228
0.122553
0.122291
0.122012
0.121717
0.121403
0.12107
0.120718
0.120346
0.119951
0.119535
0.119095
0.118632
0.118146
0.117637
0.117098
0.116529
0.115929
0.115298
0.114634
0.113941
0.113235
0.112564
0.112089
0.125617
0.125587
0.125547
0.125495
0.125432
0.125358
0.125273
0.125177
0.125068
0.124947
0.124815
0.124669
0.12451
0.124337
0.124149
0.123942
0.123719
0.12348
0.123226
0.122955