/*--------------------------------*- C++ -*----------------------------------*\
| =========                 |                                                 |
| \\      /  F ield         | OpenFOAM: The Open Source CFD Toolbox           |
|  \\    /   O peration     | Version:  3.0.1                                 |
|   \\  /    A nd           | Web:      www.OpenFOAM.org                      |
|    \\/     M anipulation  |                                                 |
\*---------------------------------------------------------------------------*/
FoamFile
{
    version     2.0;
    format      ascii;
    class       volScalarField;
    location    "500";
    object      p;
}
// * * * * * * * * * * * * * * * * * * * * * * * * * * * * * * * * * * * * * //

dimensions      [0 2 -2 0 0 0 0];

internalField   nonuniform List<scalar> 
58000
(
-0.0109249
-0.277605
-0.462839
-0.574049
-0.639347
-0.680866
-0.7089
-0.723017
-0.729503
-0.72982
-0.723755
-0.713622
-0.701179
-0.68647
-0.670413
-0.65437
-0.639027
-0.624439
-0.610546
-0.597477
-0.585132
-0.573367
-0.562101
-0.551299
-0.541019
-0.531173
-0.521562
-0.512162
-0.502973
-0.49402
-0.485272
-0.476483
-0.46767
-0.459117
-0.451145
-0.442308
-0.433121
-0.424719
-0.418147
-0.412607
0.281262
0.167535
0.0520351
-0.0702769
-0.177524
-0.272105
-0.350328
-0.416584
-0.474288
-0.518671
-0.551295
-0.57546
-0.591539
-0.599385
-0.602329
-0.600891
-0.595862
-0.58842
-0.579901
-0.570741
-0.560988
-0.550969
-0.541035
-0.531514
-0.522133
-0.512791
-0.503539
-0.494482
-0.485804
-0.477518
-0.469386
-0.461508
-0.453853
-0.446324
-0.438816
-0.430759
-0.422345
-0.414372
-0.40754
-0.402144
0.189994
0.106025
0.0261368
-0.0538001
-0.131942
-0.202427
-0.269058
-0.32587
-0.376398
-0.420387
-0.455011
-0.482453
-0.504435
-0.519701
-0.529034
-0.534448
-0.536609
-0.535778
-0.532762
-0.528319
-0.522789
-0.516443
-0.509594
-0.502604
-0.495417
-0.488036
-0.480532
-0.473014
-0.465669
-0.458474
-0.451247
-0.444022
-0.436794
-0.429599
-0.422557
-0.415527
-0.408444
-0.401555
-0.39511
-0.389104
0.19663
0.145838
0.0926844
0.0337945
-0.028053
-0.0893046
-0.149755
-0.20514
-0.257424
-0.304962
-0.345094
-0.379608
-0.409671
-0.433305
-0.450646
-0.463943
-0.473666
-0.479671
-0.482427
-0.48294
-0.481798
-0.479261
-0.475598
-0.471157
-0.466144
-0.460678
-0.45484
-0.448755
-0.442621
-0.436466
-0.430204
-0.423874
-0.417489
-0.41111
-0.404846
-0.39862
-0.392336
-0.386087
-0.379997
-0.374099
0.165584
0.128278
0.0909798
0.0499784
0.00462708
-0.0416903
-0.0905366
-0.137238
-0.183053
-0.22711
-0.26609
-0.300983
-0.332891
-0.359814
-0.380943
-0.398524
-0.412908
-0.423655
-0.430849
-0.435502
-0.438271
-0.439345
-0.438871
-0.437154
-0.434563
-0.431286
-0.427412
-0.423062
-0.418418
-0.41355
-0.408451
-0.403164
-0.397709
-0.392162
-0.386637
-0.381115
-0.375526
-0.369908
-0.364316
-0.358768
0.148798
0.120286
0.0920844
0.0612171
0.026606
-0.00923401
-0.048375
-0.0871166
-0.126272
-0.165416
-0.201486
-0.234983
-0.266727
-0.294864
-0.318068
-0.338374
-0.355953
-0.370192
-0.380872
-0.388926
-0.395019
-0.399266
-0.401698
-0.402536
-0.402257
-0.401099
-0.39915
-0.396524
-0.393377
-0.389821
-0.385921
-0.381729
-0.377272
-0.372632
-0.367916
-0.363138
-0.358248
-0.353262
-0.34821
-0.343111
0.131486
0.108551
0.086336
0.0623623
0.0353096
0.00732645
-0.0239674
-0.0555909
-0.0881615
-0.121765
-0.153708
-0.184186
-0.213881
-0.241294
-0.264723
-0.285972
-0.305077
-0.321353
-0.334336
-0.344823
-0.353443
-0.360224
-0.365101
-0.368181
-0.369999
-0.370814
-0.370698
-0.369746
-0.368086
-0.365853
-0.363173
-0.360099
-0.356667
-0.352955
-0.349066
-0.345039
-0.340845
-0.336494
-0.332009
-0.32741
0.117334
0.0982749
0.0800531
0.0606366
0.0387633
0.0162862
-0.00913567
-0.0351251
-0.0621774
-0.0907066
-0.118471
-0.145511
-0.172402
-0.198049
-0.220589
-0.241598
-0.261021
-0.278185
-0.29246
-0.304492
-0.314849
-0.32348
-0.330249
-0.335152
-0.338734
-0.341252
-0.342757
-0.343321
-0.343039
-0.342056
-0.340541
-0.338549
-0.336117
-0.333319
-0.330251
-0.326971
-0.323471
-0.319757
-0.315851
-0.311777
0.105004
0.0887843
0.0734303
0.0572493
0.039083
0.0205719
-0.000466798
-0.0220877
-0.0446996
-0.0688979
-0.0928491
-0.116525
-0.14043
-0.163828
-0.184846
-0.204857
-0.223763
-0.240954
-0.255711
-0.268527
-0.279909
-0.289742
-0.297856
-0.304135
-0.309107
-0.31301
-0.315874
-0.317744
-0.318684
-0.31883
-0.318385
-0.317398
-0.315905
-0.313976
-0.311695
-0.309137
-0.306309
-0.303217
-0.299884
-0.296335
0.0943782
0.0803191
0.0670978
0.0532898
0.0378564
0.0222601
0.00451743
-0.0137444
-0.0328645
-0.053511
-0.0741869
-0.0948384
-0.115912
-0.136961
-0.1562
-0.174826
-0.192722
-0.209368
-0.224017
-0.237037
-0.248871
-0.259364
-0.268328
-0.275562
-0.281551
-0.286515
-0.290456
-0.293396
-0.295367
-0.29649
-0.296985
-0.296896
-0.296254
-0.295123
-0.293576
-0.291695
-0.289502
-0.287004
-0.284221
-0.281183
0.0851328
0.0727734
0.0611989
0.0491984
0.0358462
0.0224525
0.00723505
-0.00842079
-0.0247969
-0.0425685
-0.0605032
-0.0785438
-0.0970854
-0.115892
-0.133321
-0.150417
-0.167058
-0.182822
-0.196977
-0.209792
-0.221655
-0.232383
-0.24179
-0.249613
-0.256287
-0.262007
-0.266752
-0.270524
-0.273328
-0.275262
-0.276555
-0.277241
-0.277347
-0.276927
-0.276042
-0.27478
-0.273173
-0.271226
-0.268962
-0.266406
0.0770501
0.0660621
0.0557955
0.0452126
0.0334897
0.0218033
0.0085597
-0.00504465
-0.0192459
-0.0346928
-0.0503593
-0.0661905
-0.0825342
-0.0993032
-0.115015
-0.130585
-0.145896
-0.160611
-0.174043
-0.186388
-0.197983
-0.208635
-0.218173
-0.226287
-0.233366
-0.239576
-0.244881
-0.249265
-0.252711
-0.255293
-0.257238
-0.258571
-0.259313
-0.259508
-0.259206
-0.258495
-0.257416
-0.255971
-0.254183
-0.252075
0.069945
0.060087
0.0508846
0.0414421
0.0310265
0.0206958
0.00902668
-0.00293623
-0.0153925
-0.0289479
-0.0427386
-0.0567146
-0.0711808
-0.0861474
-0.100291
-0.114415
-0.128416
-0.142029
-0.154625
-0.166345
-0.177482
-0.187846
-0.197281
-0.205458
-0.212716
-0.2192
-0.224859
-0.229662
-0.233577
-0.236655
-0.239113
-0.240968
-0.242234
-0.242948
-0.243146
-0.242916
-0.242302
-0.241305
-0.239947
-0.238245
0.0636691
0.0547586
0.0464395
0.0379342
0.0285896
0.0193583
0.00896914
-0.00165891
-0.0126958
-0.0246978
-0.0369292
-0.0493458
-0.0622154
-0.0756092
-0.0883509
-0.10115
-0.113915
-0.126443
-0.138165
-0.149182
-0.159752
-0.169689
-0.178862
-0.186934
-0.194201
-0.200787
-0.206631
-0.211693
-0.215927
-0.219364
-0.222209
-0.224469
-0.226154
-0.227293
-0.227911
-0.22809
-0.227876
-0.227271
-0.226293
-0.224954
0.0581018
0.0499972
0.0424234
0.0347023
0.0262511
0.0179283
0.00859764
-0.000927736
-0.0107939
-0.0215063
-0.0324325
-0.0435334
-0.0550443
-0.0670725
-0.0785764
-0.0901832
-0.101811
-0.113308
-0.124163
-0.134451
-0.1444
-0.153834
-0.162642
-0.170494
-0.177646
-0.184201
-0.190096
-0.195285
-0.199712
-0.20339
-0.206511
-0.209075
-0.211084
-0.21256
-0.21352
-0.21404
-0.214166
-0.213897
-0.213249
-0.21223
0.0531436
0.0457328
0.0387969
0.0317422
0.0240479
0.0164882
0.00804632
-0.000554887
-0.00944196
-0.0190719
-0.0288959
-0.03888
-0.0492307
-0.0600749
-0.0704914
-0.0810351
-0.0916332
-0.10217
-0.112195
-0.121762
-0.131075
-0.139969
-0.148352
-0.155906
-0.162855
-0.169285
-0.175129
-0.180341
-0.184859
-0.18868
-0.191982
-0.194759
-0.197008
-0.198744
-0.199976
-0.200773
-0.20118
-0.201194
-0.200829
-0.200085
0.0487109
0.0419041
0.035521
0.0290405
0.021996
0.0150865
0.00740126
-0.000415158
-0.00847312
-0.0171842
-0.0260693
-0.0350986
-0.0444534
-0.0542693
-0.0637308
-0.07333
-0.0830021
-0.0926609
-0.101907
-0.110782
-0.119467
-0.127811
-0.135738
-0.142948
-0.149634
-0.155871
-0.161591
-0.166746
-0.171274
-0.175158
-0.178563
-0.181478
-0.183894
-0.185822
-0.187263
-0.188279
-0.188913
-0.189161
-0.189033
-0.188524
0.0447346
0.0384585
0.0325598
0.0265795
0.0200996
0.0137512
0.00671779
-0.000424242
-0.00777187
-0.0156949
-0.0237728
-0.0319793
-0.0404739
-0.0493936
-0.0580154
-0.0667766
-0.0756197
-0.0844804
-0.0930055
-0.101228
-0.109309
-0.117111
-0.124572
-0.131412
-0.137799
-0.143798
-0.149341
-0.154382
-0.158857
-0.162743
-0.166187
-0.169176
-0.171699
-0.173759
-0.175354
-0.176538
-0.177351
-0.177788
-0.177856
-0.177545
0.0411574
0.0353511
0.0298804
0.0243404
0.018356
0.0124975
0.0060316
-0.000524872
-0.00725758
-0.0144984
-0.0218763
-0.0293684
-0.0371149
-0.0452499
-0.0531315
-0.0611488
-0.0692505
-0.0773892
-0.0852526
-0.0928671
-0.100375
-0.107654
-0.114654
-0.121115
-0.127184
-0.132916
-0.138247
-0.143132
-0.147508
-0.151346
-0.15478
-0.157793
-0.160371
-0.162515
-0.164216
-0.165523
-0.166473
-0.167058
-0.167285
-0.167136
0.0379306
0.0325433
0.027454
0.0223046
0.016759
0.0113321
0.00536509
-0.000678184
-0.00687354
-0.0135185
-0.0202844
-0.0271516
-0.0342433
-0.0416879
-0.0489145
-0.0562702
-0.0637087
-0.0711954
-0.0784539
-0.0855056
-0.0924778
-0.0992598
-0.105812
-0.111895
-0.117638
-0.123089
-0.128185
-0.132885
-0.137129
-0.140883
-0.144267
-0.147263
-0.149855
-0.152041
-0.153809
-0.1552
-0.15625
-0.156949
-0.157302
-0.157285
0.035013
0.0300016
0.0252546
0.0204547
0.0153
0.0102565
0.00473149
-0.000857985
-0.0065795
-0.0126999
-0.018927
-0.0252435
-0.0317585
-0.0385925
-0.0452373
-0.0520027
-0.0588471
-0.0657451
-0.0724521
-0.0789854
-0.085459
-0.0917732
-0.0978967
-0.103611
-0.109029
-0.114192
-0.119042
-0.123539
-0.127627
-0.131269
-0.134574
-0.137521
-0.140094
-0.142289
-0.14409
-0.145535
-0.146653
-0.147436
-0.147885
-0.147973
0.0323691
0.0276968
0.0232587
0.0187736
0.0139702
0.00926972
0.00413898
-0.00104643
-0.00634699
-0.0120022
-0.0177516
-0.02358
-0.0295837
-0.035875
-0.0420007
-0.0482379
-0.0545486
-0.0609147
-0.0671193
-0.0731765
-0.0791881
-0.0850649
-0.0907822
-0.0961406
-0.10124
-0.106116
-0.110715
-0.114999
-0.118916
-0.122427
-0.12563
-0.128505
-0.131034
-0.13321
-0.135018
-0.136488
-0.137649
-0.138489
-0.13901
-0.139179
0.0299687
0.0256037
0.021446
0.0172461
0.0127601
0.00836872
0.003592
-0.00123148
-0.00615587
-0.0113959
-0.016719
-0.0221121
-0.02766
-0.0334665
-0.039127
-0.0448894
-0.0507197
-0.0566046
-0.0623512
-0.0679715
-0.0735565
-0.079026
-0.0843609
-0.0893798
-0.0941712
-0.0987658
-0.103114
-0.107181
-0.110918
-0.114286
-0.117372
-0.120156
-0.122621
-0.124757
-0.126549
-0.128024
-0.129205
-0.130081
-0.130652
-0.130881
0.0277853
0.0237003
0.0197983
0.0158579
0.01166
0.00754877
0.00309194
-0.00140515
-0.00599116
-0.0108586
-0.0157992
-0.0208016
-0.0259411
-0.0313128
-0.0365547
-0.0418891
-0.0472851
-0.0527334
-0.0580626
-0.0632823
-0.0684739
-0.0735654
-0.0785421
-0.0832392
-0.0877353
-0.0920571
-0.0961593
-0.100009
-0.103561
-0.106778
-0.109737
-0.112418
-0.114803
-0.116885
-0.118644
-0.120105
-0.121287
-0.122181
-0.122784
-0.123057
0.025796
0.0219668
0.0182991
0.0145963
0.0106612
0.00680504
0.00263866
-0.00156247
-0.00584233
-0.0103736
-0.0149693
-0.0196195
-0.0243911
-0.029371
-0.0342352
-0.0391826
-0.044185
-0.0492363
-0.0541838
-0.0590358
-0.0638649
-0.0686062
-0.0732484
-0.0776423
-0.0818574
-0.0859172
-0.0897801
-0.0934157
-0.0967827
-0.099844
-0.102669
-0.105239
-0.107535
-0.109548
-0.111262
-0.112694
-0.113865
-0.114761
-0.115381
-0.115683
0.0239809
0.0203864
0.0169342
0.0134496
0.00975518
0.00613257
0.00223105
-0.00170074
-0.0057024
-0.00992876
-0.0142119
-0.0185432
-0.0229819
-0.0276072
-0.0321287
-0.036725
-0.0413702
-0.04606
-0.0506581
-0.0551719
-0.0596667
-0.0640838
-0.0684144
-0.0725236
-0.0764728
-0.0802824
-0.0839147
-0.0873418
-0.0905257
-0.0934306
-0.0961188
-0.0985711
-0.10077
-0.102708
-0.104365
-0.105759
-0.106905
-0.107793
-0.108417
-0.108736
0.0223225
0.0189439
0.0156906
0.0124072
0.0089341
0.00552609
0.00186713
-0.00181836
-0.00556614
-0.00951484
-0.0135135
-0.0175547
-0.021691
-0.0259943
-0.0302038
-0.0344803
-0.0387998
-0.0431597
-0.0474379
-0.051641
-0.0558274
-0.0599442
-0.0639847
-0.0678269
-0.0715253
-0.0750975
-0.0785092
-0.0817348
-0.0847396
-0.0874894
-0.0900396
-0.092372
-0.0944703
-0.0963254
-0.0979193
-0.0992658
-0.100379
-0.101248
-0.101867
-0.102193
0.0208052
0.0176261
0.0145569
0.0114596
0.0081907
0.00498063
0.00154448
-0.00191497
-0.00543
-0.00912483
-0.0128636
-0.01664
-0.0205006
-0.0245103
-0.0284352
-0.0324195
-0.0364414
-0.0404992
-0.0444838
-0.048401
-0.0523029
-0.0561416
-0.0599122
-0.0635045
-0.0669669
-0.0703147
-0.0735162
-0.0765483
-0.0793793
-0.0819767
-0.0843902
-0.0866022
-0.0885971
-0.0903659
-0.0918912
-0.0931844
-0.0942575
-0.0951001
-0.0957068
-0.0960322
0.0194155
0.0164209
0.0135227
0.010598
0.00751808
0.00449124
0.00126053
-0.00199078
-0.00529169
-0.00875362
-0.0122542
-0.0157879
-0.0193961
-0.0231374
-0.0268016
-0.0305183
-0.0342677
-0.0380484
-0.0417631
-0.0454166
-0.0490557
-0.052637
-0.0561568
-0.0595154
-0.062756
-0.065892
-0.0688941
-0.0717414
-0.0744048
-0.076854
-0.0791332
-0.0812257
-0.0831166
-0.0847971
-0.0862504
-0.0874859
-0.0885142
-0.0893249
-0.0899124
-0.0902307
0.0181413
0.0153178
0.0125786
0.00981461
0.00691009
0.00405324
0.0010125
-0.00204644
-0.00514975
-0.00839732
-0.0116788
-0.0149894
-0.018366
-0.0218612
-0.0252859
-0.0287568
-0.0322557
-0.0357819
-0.039248
-0.0426582
-0.0460543
-0.0493972
-0.0526838
-0.0558241
-0.0588567
-0.0617931
-0.0646066
-0.067278
-0.0697808
-0.0720867
-0.074235
-0.0762102
-0.0779977
-0.0795892
-0.0809687
-0.0821438
-0.0831237
-0.0838984
-0.084462
-0.0847683
0.0169717
0.0143073
0.0117164
0.0091024
0.00636102
0.00366231
0.000797727
-0.00208289
-0.00500335
-0.00805308
-0.0111325
-0.0142374
-0.0174007
-0.0206695
-0.0238739
-0.0271185
-0.0303868
-0.0336785
-0.0369154
-0.0401007
-0.043272
-0.0463937
-0.0494634
-0.0524001
-0.0552377
-0.0579864
-0.0606218
-0.0631263
-0.0654758
-0.0676438
-0.0696655
-0.0715261
-0.073212
-0.0747149
-0.07602
-0.0771332
-0.0780625
-0.0787982
-0.0793344
-0.0796249
0.0158974
0.013381
0.0109289
0.00845499
0.00586562
0.00331443
0.000613665
-0.00210133
-0.00485214
-0.00771882
-0.0106114
-0.0135263
-0.0164925
-0.0195524
-0.0225533
-0.0255891
-0.0286449
-0.0317206
-0.0347455
-0.0377227
-0.0406857
-0.0436021
-0.0464702
-0.0492166
-0.0518716
-0.054444
-0.0569116
-0.0592581
-0.0614617
-0.0634977
-0.0653975
-0.0671471
-0.0687337
-0.0701495
-0.0713804
-0.072431
-0.0733084
-0.0740032
-0.0745096
-0.0747814
0.0149097
0.0125316
0.0102093
0.00786653
0.00541908
0.00300582
0.00045765
-0.00210317
-0.00469614
-0.00739296
-0.0101123
-0.012851
-0.0156348
-0.0185017
-0.0213143
-0.0241572
-0.0270168
-0.0298927
-0.0327216
-0.035506
-0.0382756
-0.0410015
-0.0436819
-0.0462506
-0.0487346
-0.0511417
-0.0534512
-0.0556485
-0.0577136
-0.0596236
-0.0614064
-0.063049
-0.0645394
-0.06587
-0.0670276
-0.068016
-0.068841
-0.0694939
-0.0699687
-0.0702198
0.0140009
0.011752
0.00955142
0.00733169
0.00501709
0.002733
0.000327241
-0.00208969
-0.00453548
-0.00707432
-0.00963273
-0.0122078
-0.0148224
-0.0175106
-0.0201487
-0.0228131
-0.025491
-0.0281821
-0.0308292
-0.0334346
-0.0360248
-0.0385735
-0.0410791
-0.0434819
-0.0458059
-0.0480578
-0.0502188
-0.0522753
-0.0542091
-0.0559992
-0.0576702
-0.0592102
-0.0606077
-0.0618556
-0.0629416
-0.0638685
-0.0646413
-0.0652518
-0.065694
-0.0659229
0.0131641
0.0110361
0.00894992
0.00684575
0.00465569
0.00249284
0.00022026
-0.00206219
-0.00437056
-0.00676218
-0.00917064
-0.0115934
-0.0140508
-0.0165733
-0.0190495
-0.0215483
-0.0240578
-0.0265775
-0.0290559
-0.031495
-0.0339184
-0.0363022
-0.038645
-0.0408928
-0.0430671
-0.0451735
-0.0471948
-0.0491187
-0.0509284
-0.0526046
-0.0541692
-0.0556109
-0.0569192
-0.0580873
-0.0591036
-0.0599702
-0.0606915
-0.0612596
-0.0616688
-0.0618746
0.0123931
0.0103785
0.00839988
0.00640446
0.00433132
0.00228241
0.000134573
-0.00202199
-0.00420176
-0.00645593
-0.0087245
-0.0110053
-0.0133165
-0.015685
-0.0180109
-0.0203557
-0.0227088
-0.0250693
-0.027391
-0.0296753
-0.0319435
-0.0341738
-0.0363649
-0.0384679
-0.040502
-0.042472
-0.0443622
-0.0461611
-0.0478536
-0.0494218
-0.0508852
-0.0522334
-0.0534562
-0.0545475
-0.0554964
-0.0563043
-0.056975
-0.0575012
-0.0578774
-0.0580597
0.0116822
0.00977423
0.00789691
0.00600393
0.00404064
0.00209897
6.81387e-05
-0.00197033
-0.00402952
-0.00615522
-0.00829318
-0.0104415
-0.0126164
-0.0148418
-0.0170276
-0.0192292
-0.0214367
-0.0236493
-0.0258251
-0.0279653
-0.030089
-0.0321762
-0.0342257
-0.0361933
-0.0380962
-0.0399383
-0.0417053
-0.0433867
-0.0449687
-0.0464347
-0.0478022
-0.0490612
-0.0502026
-0.0512202
-0.0521041
-0.0528553
-0.0534768
-0.0539619
-0.0543052
-0.0544638
0.0110264
0.00921864
0.00743695
0.0056406
0.00378066
0.00194
1.90666e-05
-0.00190851
-0.00385455
-0.00585999
-0.00787583
-0.00990042
-0.0119482
-0.0140402
-0.0160953
-0.0181635
-0.0202354
-0.0223101
-0.0243499
-0.0263559
-0.0283447
-0.0302985
-0.0322159
-0.034057
-0.0358369
-0.0375591
-0.0392106
-0.0407815
-0.0422593
-0.0436288
-0.0449053
-0.0460798
-0.0471434
-0.0480907
-0.0489123
-0.0496087
-0.0501826
-0.0506277
-0.0509387
-0.0510736
0.010421
0.00870759
0.00701626
0.00531119
0.00354863
0.00180322
-1.43867e-05
-0.00183775
-0.00367758
-0.00557036
-0.00747187
-0.00938068
-0.0113096
-0.013277
-0.0152102
-0.0171537
-0.0190992
-0.0210454
-0.0229584
-0.024839
-0.0267021
-0.0285312
-0.0303252
-0.0320479
-0.0337127
-0.0353226
-0.0368656
-0.0383328
-0.0397125
-0.0409908
-0.0421813
-0.0432755
-0.0442654
-0.0451456
-0.0459076
-0.0465515
-0.0470794
-0.0474857
-0.0477652
-0.0478767
0.0098618
0.00823731
0.00663141
0.00501266
0.00334194
0.00168648
-3.39072e-05
-0.00175927
-0.00349926
-0.00528641
-0.00708077
-0.00888108
-0.0106987
-0.0125498
-0.0143688
-0.0161959
-0.0180232
-0.0198495
-0.0216441
-0.0234076
-0.0251532
-0.0268659
-0.0285446
-0.0301565
-0.0317135
-0.0332181
-0.0346594
-0.0360291
-0.0373165
-0.0385088
-0.039618
-0.0406362
-0.0415561
-0.0423726
-0.0430777
-0.0436713
-0.0441552
-0.044524
-0.0447727
-0.0448612
0.00934488
0.00780433
0.00627928
0.00474223
0.00315822
0.00158775
-4.10715e-05
-0.00167416
-0.00332022
-0.0050082
-0.006702
-0.00840052
-0.0101138
-0.011856
-0.0135682
-0.0152864
-0.0170032
-0.0187175
-0.0204014
-0.0220553
-0.0236911
-0.0252951
-0.0268659
-0.0283741
-0.0298302
-0.0312361
-0.0325819
-0.03386
-0.0350605
-0.0361718
-0.0372043
-0.0381508
-0.0390044
-0.0397604
-0.0404115
-0.040957
-0.0413987
-0.0417314
-0.0419505
-0.0420164
0.0088668
0.00740552
0.00595704
0.00449736
0.00299527
0.00150519
-3.72968e-05
-0.00158341
-0.00314098
-0.00473576
-0.00633511
-0.00793802
-0.00955337
-0.0111937
-0.0128057
-0.0144218
-0.0160354
-0.0176448
-0.0192252
-0.0207767
-0.0223097
-0.0238119
-0.0252819
-0.026693
-0.0280544
-0.0293679
-0.0306242
-0.0318162
-0.032935
-0.03397
-0.0349302
-0.0358091
-0.0366001
-0.0372988
-0.0378984
-0.0383982
-0.0387996
-0.0390978
-0.0392882
-0.0393323
0.00842439
0.00703803
0.00566212
0.00427576
0.00285112
0.00143714
-2.38744e-05
-0.00148793
-0.00296207
-0.00446915
-0.00597967
-0.00749272
-0.00901614
-0.0105608
-0.012079
-0.0135994
-0.0151161
-0.0166275
-0.018111
-0.0195665
-0.0210034
-0.0224104
-0.0237859
-0.025106
-0.0263789
-0.0276057
-0.0287779
-0.0298892
-0.0309313
-0.0318944
-0.0327866
-0.0336016
-0.0343335
-0.0349781
-0.035529
-0.0359854
-0.0363483
-0.0366135
-0.0367764
-0.0367994
0.00801476
0.00669926
0.00539216
0.00407534
0.00272398
0.00138208
-1.98289e-06
-0.00138856
-0.00278396
-0.00420845
-0.00563536
-0.00706386
-0.00850086
-0.00995584
-0.0113858
-0.0128165
-0.0142425
-0.015662
-0.0170546
-0.0184203
-0.0197672
-0.021085
-0.0223722
-0.023607
-0.0247967
-0.0259423
-0.0270358
-0.0280713
-0.0290413
-0.0299369
-0.030765
-0.03152
-0.0321962
-0.0327895
-0.0332943
-0.0337096
-0.0340361
-0.0342699
-0.0344065
-0.0344091
0.0076353
0.00638685
0.00514503
0.00389419
0.00261222
0.00133863
2.73018e-05
-0.00128606
-0.00260708
-0.00395373
-0.00530189
-0.00665078
-0.00800649
-0.00937722
-0.0107243
-0.0120708
-0.0134117
-0.0147451
-0.0160526
-0.017334
-0.0185965
-0.0198308
-0.0210353
-0.0221902
-0.023302
-0.0243713
-0.025391
-0.0263555
-0.0272578
-0.0280899
-0.0288578
-0.0295563
-0.0301799
-0.030725
-0.0311863
-0.0315627
-0.0318547
-0.0320586
-0.0321702
-0.0321534
0.00728358
0.00609863
0.00491878
0.00373057
0.00251433
0.00130554
6.29969e-05
-0.00118112
-0.00243185
-0.00370508
-0.004979
-0.00625287
-0.00753205
-0.00882362
-0.0100928
-0.0113602
-0.0126211
-0.0138738
-0.0151014
-0.0163038
-0.0174873
-0.0186433
-0.0197702
-0.0208503
-0.021889
-0.0228869
-0.0238373
-0.0247352
-0.0255741
-0.0263465
-0.0270579
-0.0277032
-0.0282774
-0.0287772
-0.0291975
-0.0295372
-0.0297967
-0.0299724
-0.0300602
-0.0300249
0.00695741
0.00583262
0.00471164
0.0035829
0.00242896
0.00128166
0.000104205
-0.0010744
-0.00225865
-0.00346258
-0.00466646
-0.00586961
-0.0070767
-0.00829382
-0.00948969
-0.0106827
-0.0118686
-0.0130454
-0.0141981
-0.0153264
-0.0164358
-0.0175184
-0.0185727
-0.0195825
-0.0205527
-0.0214837
-0.0223692
-0.0232046
-0.023984
-0.0247005
-0.0253588
-0.0259541
-0.026482
-0.026939
-0.0273208
-0.027626
-0.0278549
-0.028004
-0.0280694
-0.0280167
0.00665478
0.00558702
0.00452195
0.00344973
0.00235487
0.00126593
0.000150108
-0.000966479
-0.00208782
-0.0032263
-0.00436408
-0.0055005
-0.00663964
-0.00778671
-0.00891357
-0.0100367
-0.011152
-0.0122577
-0.01334
-0.0143987
-0.0154385
-0.0164523
-0.0174385
-0.0183825
-0.0192885
-0.0201567
-0.0209814
-0.0217582
-0.0224818
-0.0231458
-0.0237543
-0.0243028
-0.0247872
-0.0252043
-0.0255499
-0.0258227
-0.0260229
-0.0261471
-0.0261915
-0.0261226
0.00637384
0.00536016
0.00434825
0.00332973
0.00229092
0.00125739
0.000199958
-0.000857888
-0.00191968
-0.00299631
-0.00407167
-0.0051451
-0.00622016
-0.00730127
-0.00836314
-0.00942044
-0.0104694
-0.0115082
-0.0125245
-0.0135178
-0.0144924
-0.0154416
-0.016364
-0.0172462
-0.018092
-0.0189014
-0.0196691
-0.020391
-0.0210624
-0.0216772
-0.0222389
-0.0227436
-0.0231873
-0.023567
-0.0238788
-0.0241213
-0.0242946
-0.0243956
-0.0244205
-0.0243366
0.00611289
0.00515053
0.00418914
0.0032217
0.00223606
0.00125519
0.000253075
-0.000749115
-0.00175451
-0.00277267
-0.00378904
-0.00480299
-0.00581759
-0.00683657
-0.0078372
-0.00883254
-0.00981911
-0.0107951
-0.0117493
-0.0126812
-0.0135945
-0.0144832
-0.0153457
-0.01617
-0.0169593
-0.0177135
-0.0184278
-0.0190984
-0.0197208
-0.0202895
-0.0208076
-0.0212713
-0.0216768
-0.0220216
-0.0223018
-0.0225161
-0.0226645
-0.0227439
-0.0227507
-0.0226532
0.00587037
0.00495672
0.00404339
0.00312451
0.00218936
0.00125851
0.000308841
-0.000640597
-0.00159256
-0.00255543
-0.00351604
-0.00447378
-0.00543131
-0.00639173
-0.00733464
-0.00827164
-0.0091995
-0.0101165
-0.0110123
-0.0118865
-0.0127423
-0.0135741
-0.0143804
-0.0151504
-0.0158868
-0.0165893
-0.0172536
-0.0178761
-0.0184526
-0.0189782
-0.0194554
-0.0198808
-0.0202508
-0.0205629
-0.0208138
-0.0210019
-0.0211271
-0.0211866
-0.0211769
-0.0210673
0.00564485
0.00477746
0.00390984
0.00303715
0.00214994
0.00126663
0.000366699
-0.000532724
-0.00143405
-0.00234462
-0.0032525
-0.0041571
-0.00506074
-0.00596596
-0.00685444
-0.00773647
-0.00860906
-0.00947048
-0.0103114
-0.0111314
-0.0119332
-0.0127117
-0.0134653
-0.0141843
-0.014871
-0.0155251
-0.0161425
-0.01672
-0.0172536
-0.0177389
-0.018178
-0.0185675
-0.0189044
-0.0191862
-0.0194098
-0.0195736
-0.0196775
-0.0197188
-0.0196941
-0.0195738
0.00543501
0.00461155
0.00378743
0.00295868
0.00211701
0.00127889
0.00042614
-0.000425846
-0.00127917
-0.00214023
-0.00299824
-0.00385261
-0.00470534
-0.00555851
-0.00639565
-0.00722587
-0.00804643
-0.00885559
-0.00964495
-0.010414
-0.011165
-0.0118934
-0.0125976
-0.0132688
-0.0139089
-0.0145176
-0.0150911
-0.0156265
-0.01612
-0.0165676
-0.016971
-0.0173272
-0.0176332
-0.0178869
-0.0180851
-0.0182266
-0.018311
-0.0183357
-0.0182975
-0.018168
0.00523965
0.00445792
0.00367518
0.00288825
0.00208984
0.00129469
0.000486701
-0.000320285
-0.00112809
-0.00194229
-0.00275311
-0.00355999
-0.00436462
-0.00516868
-0.00595737
-0.00673876
-0.00751029
-0.00827028
-0.0090111
-0.00973218
-0.0104355
-0.0111169
-0.0117747
-0.012401
-0.0129975
-0.0135637
-0.0140961
-0.014592
-0.0150481
-0.0154604
-0.0158305
-0.0161557
-0.0164331
-0.0166606
-0.0168355
-0.0169564
-0.0170229
-0.0170327
-0.0169826
-0.0168455
0.00505763
0.00431556
0.00357221
0.00282507
0.00206777
0.00131348
0.000547962
-0.000216326
-0.000980965
-0.00175079
-0.00251696
-0.00327892
-0.00403809
-0.00479581
-0.00553877
-0.00627411
-0.00699945
-0.00771315
-0.0084083
-0.00908429
-0.00974283
-0.01038
-0.0109943
-0.0115785
-0.012134
-0.0126604
-0.0131544
-0.0136134
-0.0140344
-0.0144139
-0.014753
-0.0150493
-0.0153001
-0.0155034
-0.0156568
-0.0157588
-0.0158091
-0.0158055
-0.015745
-0.0156017
0.00488791
0.00418354
0.00347768
0.00276842
0.00205017
0.00133474
0.000609543
-0.000114226
-0.000837919
-0.00156572
-0.00228962
-0.00300908
-0.00372529
-0.00443925
-0.00513905
-0.00583095
-0.00651277
-0.0071829
-0.00783505
-0.00846863
-0.00908504
-0.00968071
-0.0102542
-0.0107989
-0.011316
-0.0118051
-0.0122631
-0.0126876
-0.0130759
-0.0134246
-0.0137349
-0.0140043
-0.0142304
-0.0144114
-0.0145449
-0.0146298
-0.0146655
-0.0146499
-0.0145804
-0.0144324
0.00472955
0.00406102
0.00339084
0.00271763
0.00203651
0.00135803
0.000671103
-1.42107e-05
-0.000699061
-0.00138705
-0.00207094
-0.00275018
-0.00342576
-0.00409843
-0.00475746
-0.0054084
-0.00604919
-0.00667828
-0.00728997
-0.00788363
-0.00846044
-0.00901711
-0.00955221
-0.0100599
-0.010541
-0.0109951
-0.0114195
-0.0118118
-0.0121694
-0.0124895
-0.0127729
-0.0130173
-0.0132206
-0.0133809
-0.0134963
-0.0135654
-0.0135879
-0.0135618
-0.0134846
-0.0133331
0.00458166
0.0039472
0.003311
0.00267209
0.00202626
0.00138293
0.000732332
8.35186e-05
-0.000564481
-0.00121476
-0.00186076
-0.00250194
-0.00313911
-0.00377277
-0.00439331
-0.00500558
-0.00560769
-0.00619814
-0.00677173
-0.00732782
-0.00786738
-0.00838741
-0.00888652
-0.00935939
-0.00980681
-0.0102282
-0.010621
-0.0109832
-0.0113123
-0.0116057
-0.011864
-0.0120852
-0.0122672
-0.0124086
-0.0125072
-0.0125621
-0.0125727
-0.0125373
-0.0124536
-0.0122998
0.00444343
0.00384137
0.0032375
0.00263125
0.00201896
0.00140906
0.000792952
0.000178786
-0.00043425
-0.00104879
-0.00165892
-0.00226407
-0.0028649
-0.00346173
-0.00404591
-0.00462171
-0.00518735
-0.00574138
-0.00627908
-0.00679981
-0.00730435
-0.00778994
-0.00825526
-0.0086955
-0.00911127
-0.00950199
-0.00986532
-0.0101993
-0.0105017
-0.0107702
-0.0110052
-0.0112048
-0.0113673
-0.011491
-0.0115743
-0.0116161
-0.0116161
-0.0115725
-0.0114834
-0.0113282
0.0043141
0.00374285
0.00316977
0.0025946
0.00201419
0.00143607
0.000852715
0.000271438
-0.000308425
-0.000889113
-0.00146525
-0.0020363
-0.00260276
-0.00316479
-0.00371463
-0.004256
-0.00478725
-0.00530696
-0.00581086
-0.0062983
-0.00676991
-0.00722315
-0.00765675
-0.00806636
-0.00845245
-0.00881443
-0.00915015
-0.00945779
-0.00973532
-0.00998051
-0.0101938
-0.0103734
-0.0105176
-0.0106252
-0.0106944
-0.0107243
-0.0107146
-0.0106638
-0.0105702
-0.0104144
0.004193
0.00365103
0.00310724
0.00256165
0.00201155
0.00146366
0.000911399
0.000361342
-0.000187045
-0.00073565
-0.00127961
-0.00181836
-0.00235231
-0.00288147
-0.00339887
-0.00390773
-0.00440654
-0.00489391
-0.00536597
-0.00582208
-0.00626272
-0.00668556
-0.00708938
-0.00747024
-0.00782848
-0.00816353
-0.00847339
-0.00875639
-0.00901065
-0.00923414
-0.00942716
-0.00958814
-0.00971551
-0.00980802
-0.00986425
-0.00988329
-0.0098649
-0.00980776
-0.00971029
-0.00955445
0.00407943
0.00356532
0.00304942
0.00253198
0.00201068
0.00149154
0.000968804
0.000448383
-7.0138e-05
-0.000588339
-0.00110181
-0.00161
-0.00211319
-0.00261129
-0.00309804
-0.00357623
-0.00404443
-0.00450132
-0.00494339
-0.00537
-0.00578151
-0.00617579
-0.00655164
-0.0069055
-0.00723763
-0.00754742
-0.00783307
-0.00809301
-0.00832551
-0.00852873
-0.00870287
-0.0088465
-0.00895818
-0.00903679
-0.00908104
-0.0090901
-0.00906379
-0.00900095
-0.00890022
-0.00874462
0.00397284
0.00348521
0.00299584
0.00250518
0.00201126
0.00151946
0.00102475
0.000532462
4.22776e-05
-0.000447111
-0.000931705
-0.00141096
-0.00188506
-0.00235381
-0.0028116
-0.00326083
-0.00370016
-0.00412833
-0.00454215
-0.00494099
-0.00532511
-0.00569252
-0.0060421
-0.00637061
-0.00667822
-0.00696435
-0.00722731
-0.00746566
-0.00767781
-0.00786209
-0.00801861
-0.00814607
-0.00824316
-0.00830885
-0.00834198
-0.00834183
-0.00830827
-0.00824024
-0.00813665
-0.00798143
0.00387264
0.00341019
0.00294608
0.0024809
0.002013
0.00154718
0.00107908
0.000613495
0.000150193
-0.000311892
-0.000769137
-0.001221
-0.00166758
-0.0021086
-0.00253902
-0.00296091
-0.00337302
-0.00377413
-0.00416133
-0.00453402
-0.00489236
-0.00523453
-0.00555942
-0.00586413
-0.00614874
-0.00641267
-0.00665437
-0.0068725
-0.00706561
-0.00723216
-0.00737222
-0.00748459
-0.00756806
-0.00762171
-0.00764451
-0.00763581
-0.00759551
-0.00752271
-0.00741647
-0.00726158
0.00377834
0.00333982
0.00289973
0.00245879
0.00201562
0.00157449
0.00113166
0.00069141
0.000253609
-0.000182606
-0.000613949
-0.00103988
-0.00146043
-0.00187525
-0.00227982
-0.0026759
-0.00306232
-0.00343793
-0.00380006
-0.00414813
-0.00448222
-0.00480064
-0.00510234
-0.00538469
-0.00564771
-0.00589082
-0.00611259
-0.00631178
-0.00648706
-0.00663702
-0.00676167
-0.00685993
-0.00693068
-0.00697309
-0.00698623
-0.00696953
-0.00692293
-0.00684562
-0.00673684
-0.00658211
0.00368943
0.00327368
0.00285644
0.00243855
0.00201886
0.00160121
0.00118235
0.000766149
0.000352535
-5.9171e-05
-0.000465985
-0.000867371
-0.0012633
-0.00165337
-0.00203351
-0.00240523
-0.00276743
-0.00311899
-0.00345751
-0.0037824
-0.00409366
-0.00438976
-0.00466968
-0.00493103
-0.00517377
-0.00539734
-0.00560043
-0.00578187
-0.00594044
-0.00607485
-0.00618508
-0.00627013
-0.00632897
-0.00636084
-0.00636493
-0.0063407
-0.00628813
-0.0062065
-0.00609519
-0.00594034
0.00360549
0.00321136
0.00281585
0.00241988
0.00202251
0.00162717
0.00123106
0.000837666
0.000446988
5.84992e-05
-0.000325091
-0.00070325
-0.00107589
-0.00144257
-0.00179964
-0.00214837
-0.00248772
-0.00281663
-0.0031329
-0.00343596
-0.00372575
-0.00400086
-0.0042603
-0.00450193
-0.00472563
-0.00493088
-0.00511644
-0.00528123
-0.00542414
-0.00554399
-0.0056407
-0.00571335
-0.00576102
-0.00578299
-0.00577855
-0.00574719
-0.00568892
-0.00560309
-0.00548919
-0.00533388
0.00352609
0.00315251
0.00277767
0.00240254
0.00202636
0.0016522
0.00127768
0.000905922
0.00053699
0.000170492
-0.000191111
-0.000547292
-0.000897914
-0.00124251