/*--------------------------------*- C++ -*----------------------------------*\
| =========                 |                                                 |
| \\      /  F ield         | OpenFOAM: The Open Source CFD Toolbox           |
|  \\    /   O peration     | Version:  3.0.1                                 |
|   \\  /    A nd           | Web:      www.OpenFOAM.org                      |
|    \\/     M anipulation  |                                                 |
\*---------------------------------------------------------------------------*/
FoamFile
{
    version     2.0;
    format      ascii;
    class       surfaceScalarField;
    location    "500";
    object      phi;
}
// * * * * * * * * * * * * * * * * * * * * * * * * * * * * * * * * * * * * * //

dimensions      [0 3 -1 0 0 0 0];

internalField   nonuniform List<scalar> 
115520
(
0.013102
-0.00166896
-0.011433
0.0143016
-0.0011996
0.0145915
-0.000289975
0.0143965
0.000195086
0.0139549
0.000441574
0.0133446
0.000610291
0.0127681
0.00057651
0.0122412
0.000526844
0.0117512
0.000490033
0.0113894
0.000361796
0.0111466
0.000242827
0.0109753
0.000171281
0.010873
0.000102323
0.0108796
-6.5918e-06
0.0109361
-5.64913e-05
0.011024
-8.79109e-05
0.0111334
-0.0001094
0.0112711
-0.000137731
0.011426
-0.000154936
0.0115807
-0.000154668
0.0117302
-0.000149507
0.011871
-0.000140742
0.0120113
-0.000140351
0.0121434
-0.000132093
0.0122613
-0.000117884
0.0123639
-0.000102598
0.0124503
-8.64122e-05
0.012523
-7.27438e-05
0.0125855
-6.24691e-05
0.0126296
-4.40413e-05
0.0126544
-2.48423e-05
0.0126585
-4.1419e-06
0.0126401
1.84355e-05
0.0125981
4.19857e-05
0.0125128
8.53055e-05
0.0123904
0.000122455
0.0122492
0.000141185
0.0121061
0.00014304
0.0119793
0.000126879
9.76586e-05
0.0118816
0.0082261
-0.00282029
-0.00707477
0.00926528
-0.00223879
0.0102621
-0.00128677
0.0111711
-0.000713898
0.011953
-0.000340399
0.0125777
-1.43364e-05
0.0130604
9.37545e-05
0.0134172
0.000170009
0.0136485
0.0002588
0.0138162
0.000194045
0.0139398
0.000119287
0.0140083
0.000102728
0.0140363
7.4302e-05
0.0140954
-6.56018e-05
0.0141488
-0.000109905
0.0141962
-0.0001353
0.0142414
-0.000154604
0.0143102
-0.000206566
0.0143945
-0.000239191
0.0144765
-0.000236734
0.0145558
-0.000228808
0.014631
-0.00021592
0.014718
-0.000227365
0.0148034
-0.000217444
0.0148789
-0.000193428
0.0149436
-0.000167284
0.0149964
-0.000139215
0.015041
-0.000117325
0.0150819
-0.000103375
0.0151081
-7.02087e-05
0.0151196
-3.64353e-05
0.0151178
-2.27896e-06
0.015104
3.22031e-05
0.0150821
6.38942e-05
0.0150493
0.000118139
0.0150005
0.000171244
0.0149368
0.000204922
0.0148595
0.000220287
0.0147702
0.000216151
0.000192721
0.0146752
0.00774773
-0.00387135
-0.00669667
0.00869963
-0.00319069
0.00957064
-0.00215778
0.0103789
-0.00152212
0.0110732
-0.00103471
0.0117271
-0.000668281
0.0122802
-0.000459371
0.0127619
-0.000311682
0.0131789
-0.000158118
0.0135243
-0.00015138
0.0138148
-0.000171225
0.0140565
-0.000139016
0.0142543
-0.000123488
0.0144398
-0.0002511
0.014605
-0.000275056
0.0147519
-0.000282179
0.0148849
-0.000287662
0.0150226
-0.000344296
0.0151622
-0.00037879
0.0152932
-0.000367724
0.015416
-0.000351525
0.01553
-0.000329982
0.0156477
-0.000345098
0.0157593
-0.000329016
0.0158588
-0.000292898
0.0159455
-0.000254003
0.0160187
-0.000212411
0.0160812
-0.000179801
0.0161362
-0.000158354
0.0161747
-0.000108721
0.0161964
-5.81499e-05
0.0162009
-6.74091e-06
0.0161877
4.53229e-05
0.0161599
9.17565e-05
0.0161177
0.000160292
0.0160578
0.000231204
0.0159821
0.000280547
0.0158925
0.000309892
0.015789
0.000319673
0.000310207
0.0156715
0.00700927
-0.00476237
-0.00611824
0.0078804
-0.00406183
0.0087269
-0.00300427
0.00954541
-0.00234063
0.0102859
-0.00177525
0.0109918
-0.00137411
0.0116196
-0.00108716
0.0121901
-0.000882197
0.0127092
-0.000677261
0.0131663
-0.000608472
0.0135722
-0.000577092
0.0139329
-0.000499735
0.0142492
-0.000439802
0.0145354
-0.000537238
0.0147923
-0.000532015
0.0150219
-0.000511755
0.0152274
-0.000493216
0.0154222
-0.000539041
0.0156073
-0.000563883
0.0157775
-0.000537926
0.0159339
-0.000507968
0.0160773
-0.000473348
0.0162176
-0.000485383
0.0163483
-0.000459697
0.016465
-0.000409674
0.0165675
-0.000356496
0.0166553
-0.000300187
0.0167308
-0.000255261
0.0167966
-0.000224224
0.0168456
-0.000157722
0.0168774
-8.99253e-05
0.0168916
-2.09183e-05
0.0168877
4.91819e-05
0.0168678
0.0001117
0.016832
0.00019607
0.0167767
0.000286555
0.0167027
0.000354478
0.0166113
0.000401288
0.0165031
0.00042793
0.00043524
0.0163781
0.00666925
-0.00558443
-0.00584719
0.00748619
-0.00487877
0.00829549
-0.00381358
0.00910073
-0.00314587
0.00985219
-0.00252671
0.0105886
-0.00211052
0.0112599
-0.00175847
0.0118845
-0.00150676
0.0124693
-0.00126208
0.012995
-0.00113421
0.0134706
-0.00105263
0.0139049
-0.000934071
0.0142971
-0.000831986
0.0146498
-0.000889937
0.0149704
-0.000852646
0.0152609
-0.00080227
0.0155235
-0.0007558
0.0157666
-0.000782175
0.015993
-0.000790188
0.0162001
-0.000745035
0.0163892
-0.00069711
0.0165613
-0.000645487
0.0167246
-0.000648675
0.0168748
-0.000609909
0.0170089
-0.000543772
0.0171268
-0.000474343
0.0172282
-0.00040157
0.0173152
-0.00034228
0.0173902
-0.000299248
0.0174473
-0.000214795
0.0174861
-0.00012872
0.0175063
-4.11206e-05
0.0175076
4.78725e-05
0.0174918
0.000127503
0.0174593
0.00022853
0.0174069
0.000339
0.0173348
0.000426534
0.0172436
0.000492511
0.0171335
0.000538059
0.000564288
0.0170044
0.00642781
-0.0063652
-0.00564704
0.00720994
-0.00566089
0.00799156
-0.0045952
0.00877778
-0.0039321
0.00952862
-0.00327755
0.0102766
-0.0028585
0.0109757
-0.00245758
0.0116396
-0.00217068
0.0122742
-0.00189666
0.0128565
-0.00171654
0.0133924
-0.00158852
0.013891
-0.0014326
0.0143498
-0.00129085
0.0147639
-0.00130398
0.0151438
-0.00123257
0.0154914
-0.0011499
0.0158081
-0.00107243
0.0160984
-0.00107249
0.0163658
-0.00105766
0.0166103
-0.000989486
0.0168329
-0.000919741
0.0170348
-0.00084736
0.0172223
-0.000836187
0.0173932
-0.000780758
0.0175454
-0.000696023
0.0176792
-0.000608088
0.0177944
-0.00051681
0.017893
-0.000440904
0.0179772
-0.000383438
0.0180422
-0.000279742
0.0180876
-0.000174189
0.0181134
-6.68835e-05
0.0181192
4.20385e-05
0.0181067
0.000140005
0.0180764
0.000258868
0.0180253
0.000390117
0.0179535
0.000498258
0.0178614
0.000584621
0.0177491
0.000650398
0.000696808
0.0176166
0.00628322
-0.00712643
-0.00552198
0.00704705
-0.00642472
0.00781206
-0.00536021
0.00858391
-0.00470396
0.00933036
-0.00402399
0.01008
-0.00360818
0.0107928
-0.00317036
0.0114798
-0.00285768
0.0121465
-0.00256331
0.0127688
-0.00233889
0.0133502
-0.00216993
0.0138993
-0.00198171
0.0144128
-0.00180433
0.0148797
-0.00177087
0.0153123
-0.00166518
0.0157121
-0.00154969
0.0160794
-0.00143976
0.0164156
-0.00140868
0.0167244
-0.00136646
0.0170072
-0.00127226
0.0172649
-0.00117748
0.0174986
-0.00108103
0.0177128
-0.00105042
0.0179069
-0.000974818
0.0180798
-0.000868897
0.0182317
-0.000760017
0.0183628
-0.000647958
0.0184749
-0.000552935
0.0185698
-0.000478358
0.0186439
-0.000353833
0.018697
-0.00022731
0.018729
-9.89011e-05
0.0187398
3.1254e-05
0.0187308
0.000149019
0.0187025
0.000287134
0.0186525
0.000440175
0.0185807
0.000570012
0.0184874
0.000677926
0.0183727
0.000765118
0.000832834
0.0182367
0.00619756
-0.00788094
-0.00544305
0.0069547
-0.00718187
0.00771312
-0.00611863
0.008478
-0.00546883
0.00922311
-0.00476911
0.00997331
-0.00435838
0.0106947
-0.00389177
0.0113967
-0.00355965
0.0120844
-0.00325105
0.0127352
-0.00298969
0.0133508
-0.00278548
0.0139389
-0.00256987
0.014496
-0.00236135
0.0150074
-0.00228225
0.0154856
-0.00214348
0.0159318
-0.00199583
0.0163453
-0.00185329
0.0167248
-0.00178815
0.0170738
-0.00171542
0.0173946
-0.00159308
0.0176879
-0.00147081
0.0179545
-0.0013476
0.0181972
-0.0012931
0.0184164
-0.00119411
0.0186121
-0.00106451
0.0187843
-0.000932264
0.0189334
-0.000797094
0.0190609
-0.000680361
0.0191684
-0.000585878
0.0192533
-0.000438757
0.0193156
-0.000289592
0.0193552
-0.00013849
0.019372
1.44022e-05
0.0193674
0.000153615
0.019342
0.000312581
0.0192935
0.000488621
0.0192222
0.000641383
0.019128
0.000772097
0.0190112
0.000881941
0.000972135
0.0188719
0.00615636
-0.00863757
-0.00539973
0.00691519
-0.0079407
0.00767482
-0.00687827
0.00843967
-0.00623368
0.00918799
-0.00551742
0.00994121
-0.00511161
0.0106708
-0.00462133
0.0113848
-0.00427365
0.0120882
-0.00395446
0.0127604
-0.0036619
0.0134022
-0.0034273
0.0140207
-0.00318835
0.0146121
-0.00295277
0.0151603
-0.00283042
0.0156772
-0.00266041
0.0161634
-0.00248202
0.0166177
-0.00230763
0.0170367
-0.0022071
0.0174233
-0.00210206
0.0177805
-0.00195027
0.0181085
-0.00179883
0.0184078
-0.00164685
0.0186795
-0.00156485
0.0189251
-0.00143969
0.0191448
-0.00128417
0.0193388
-0.0011263
0.0195075
-0.00096579
0.019652
-0.000824819
0.0197737
-0.000707656
0.0198711
-0.00053609
0.019944
-0.000362503
0.0199925
-0.000187
0.0200166
-9.73041e-06
0.0200175
0.000152714
0.0199959
0.000334266
0.0199498
0.000534653
0.0198795
0.000711692
0.0197851
0.000866553
0.0196666
0.00100037
0.00111431
0.0195245
0.00614881
-0.00940264
-0.00538375
0.0069155
-0.00870738
0.00768238
-0.00764515
0.00845306
-0.00700436
0.00920914
-0.00627349
0.00996906
-0.00587154
0.0107086
-0.00536083
0.0114347
-0.00499977
0.0121521
-0.00467184
0.0128424
-0.00435227
0.0135061
-0.00409094
0.0141494
-0.00383162
0.0147688
-0.00357218
0.0153478
-0.00340945
0.0158976
-0.00321016
0.0164182
-0.00300264
0.0169081
-0.0027976
0.0173625
-0.00266142
0.0177836
-0.00252322
0.0181747
-0.00234132
0.0185355
-0.00215967
0.0188662
-0.00197755
0.0191666
-0.00186526
0.0194386
-0.00171166
0.0196827
-0.0015283
0.0198992
-0.00134281
0.0200884
-0.00115492
0.0202509
-0.000987351
0.0203881
-0.000844867
0.020499
-0.00064701
0.0205837
-0.000447198
0.0206423
-0.000245537
0.0206747
-4.2183e-05
0.0206821
0.000145346
0.020665
0.000351298
0.0206222
0.000577478
0.0205537
0.000780238
0.0204596
0.000960677
0.0203401
0.00111987
0.00125891
0.0201954
0.00616812
-0.0101809
-0.00538986
0.00694741
-0.00948667
0.00772628
-0.00842402
0.00850759
-0.00778567
0.00927548
-0.00704138
0.0100459
-0.00664192
0.0107979
-0.00611283
0.0115376
-0.00573952
0.0122693
-0.00540355
0.0129769
-0.00505987
0.0136604
-0.00477443
0.0143255
-0.00449669
0.014969
-0.00421569
0.0155749
-0.00401532
0.0161532
-0.00378846
0.0167038
-0.00355329
0.017225
-0.00331882
0.017711
-0.00314737
0.0181636
-0.0029758
0.0185858
-0.00276353
0.0189772
-0.00255107
0.0193375
-0.00233791
0.0196655
-0.00219327
0.0199633
-0.00200944
0.0202316
-0.00179662
0.0204706
-0.0015818
0.0206804
-0.00136472
0.0208615
-0.00116843
0.0210148
-0.000998187
0.0211401
-0.00077225
0.0212373
-0.00054444
0.0213066
-0.000314873
0.0213482
-8.37164e-05
0.0213627
0.000130766
0.0213511
0.000362966
0.0213121
0.000616447
0.0212459
0.000846434
0.0211527
0.00105395
0.0210325
0.00123998
0.00140556
0.0208859
0.00620959
-0.0109761
-0.00541437
0.00700528
-0.0102823
0.00779997
-0.00921871
0.00859586
-0.00858157
0.00937909
-0.00782461
0.0101634
-0.0074262
0.0109306
-0.00688004
0.011686
-0.00649495
0.0124334
-0.00615098
0.0131587
-0.0057851
0.0138616
-0.00547734
0.0145472
-0.00518232
0.0152128
-0.00488124
0.015843
-0.0046456
0.0164471
-0.0043925
0.0170246
-0.00413084
0.0175738
-0.00386803
0.0180884
-0.00366193
0.0185697
-0.00345709
0.0190206
-0.0032144
0.0194403
-0.0029708
0.0198284
-0.00272601
0.0201827
-0.00254753
0.0205053
-0.00233206
0.0207971
-0.00208846
0.0210581
-0.00184283
0.0212884
-0.00159498
0.021488
-0.00136807
0.0216577
-0.00116787
0.0217976
-0.000912151
0.0219078
-0.000654637
0.0219884
-0.000395458
0.0220395
-0.000134803
0.0220618
0.00010848
0.022056
0.000368774
0.0220213
0.000651101
0.0219579
0.00090986
0.0218659
0.00114598
0.0217455
0.00136038
0.00155398
0.021597
0.00626995
-0.0117914
-0.00545465
0.00708518
-0.0110976
0.00789889
-0.0100324
0.00871268
-0.00939536
0.0095143
-0.00862623
0.0103156
-0.0082275
0.0111006
-0.00766508
0.011874
-0.00726828
0.0126389
-0.00691594
0.0133829
-0.00652911
0.0141057
-0.00620015
0.0148118
-0.00588839
0.0154986
-0.00556808
0.0161521
-0.00529906
0.0167803
-0.00502065
0.0173828
-0.00473333
0.0179577
-0.00444296
0.0184986
-0.00420288
0.0190065
-0.003965
0.019484
-0.00369186
0.0199301
-0.00341692
0.0203442
-0.00314007
0.0207233
-0.00292668
0.0210697
-0.00267844
0.0213842
-0.00240292
0.0216666
-0.0021252
0.0219168
-0.00184519
0.0221347
-0.00158598
0.0223207
-0.00135385
0.0224753
-0.00106676
0.0225986
-0.000777907
0.0226906
-0.000487471
0.0227514
-0.000195663
0.0227817
7.8226e-05
0.022782
0.000368436
0.0227519
0.000681172
0.0226915
0.000970268
0.022601
0.00123656
0.0224805
0.00148086
0.00170402
0.0223304
0.00634684
-0.0126295
-0.00550879
0.00718433
-0.0119351
0.00801981
-0.0108679
0.00885438
-0.0102299
0.00967706
-0.00944891
0.0104981
-0.00904856
0.0113034
-0.00847037
0.0120969
-0.00806172
0.0128813
-0.00770039
0.0136456
-0.00729337
0.0143893
-0.00694386
0.0151164
-0.0066155
0.0158246
-0.0062763
0.0165009
-0.00597534
0.0171524
-0.00567218
0.0177788
-0.00535967
0.018378
-0.00504224
0.0189439
-0.00476873
0.0194769
-0.004498
0.0199794
-0.00419437
0.0204504
-0.00388789
0.0208889
-0.00357862
0.0212917
-0.0033295
0.0216608
-0.00304754
0.021997
-0.00273911
0.0223
-0.00242817
0.0225695
-0.00211474
0.0228053
-0.00182174
0.0230073
-0.0015559
0.0231765
-0.00123591
0.0233127
-0.000914167
0.0234162
-0.000590884
0.0234868
-0.000266315
0.0235251
3.9932e-05
0.0235317
0.000361844
0.0235063
0.000706559
0.023449
0.00102757
0.02336
0.0013256
0.0232394
0.00160139
0.00185565
0.0230878
0.00643856
-0.0134927
-0.00557538
0.00730072
-0.0127972
0.00816042
-0.0117276
0.0090183
-0.0110878
0.00986446
-0.0102951
0.0107078
-0.00989189
0.0115356
-0.00929821
0.0123513
-0.00887738
0.0131572
-0.00850633
0.0139434
-0.00807951
0.0147093
-0.00770977
0.0154584
-0.0073646
0.0161886
-0.00700651
0.0168879
-0.00667466
0.0175627
-0.00634697
0.0182125
-0.00600944
0.0188354
-0.00566516
0.0194253
-0.00535862
0.0199824
-0.00505514
0.0205089
-0.00472086
0.0210036
-0.00438258
0.0214655
-0.00404052
0.021891
-0.003755
0.022282
-0.00343848
0.022639
-0.0030962
0.0229619
-0.00275101
0.0232501
-0.00240299
0.0235032
-0.00207483
0.023721
-0.00177366
0.0239044
-0.00141934
0.0240534
-0.0010632
0.0241681
-0.000705533
0.0242484
-0.000346636
0.0242947
-6.32939e-06
0.0243075
0.000349031
0.0242868
0.000727296
0.0242325
0.0010818
0.024145
0.00141316
0.0240243
0.00172201
0.00200897
0.023871
0.00654387
-0.0143832
-0.00565337
0.0074329
-0.0136863
0.00831903
-0.0126137
0.00920253
-0.0119713
0.0100744
-0.0111669
0.0109423
-0.0107598
0.0117948
-0.0101507
0.0126347
-0.00971729
0.0134641
-0.00933571
0.0142738
-0.00888923
0.0150633
-0.00849931
0.0158357
-0.00813694
0.0165888
-0.00775967
0.0173118
-0.00739763
0.0180102
-0.00704538
0.0186835
-0.00668273
0.0193299
-0.00631155
0.0199434
-0.00597217
0.0205242
-0.00563592
0.021074
-0.0052707
0.0215917
-0.00490027
0.0220762
-0.00452497
0.0225236
-0.00420244
0.0229357
-0.00385056
0.0233131
-0.00347354
0.0236551
-0.00309308
0.0239615
-0.00270937
0.0242314
-0.00234476
0.0244646
-0.00200677
0.0246619
-0.00161671
0.0248235
-0.00122473
0.0249491
-0.000831177
0.0250389
-0.000436412
0.0250929
-6.03867e-05
0.0251118
0.000330135
0.0250956
0.000743524
0.0250443
0.00113311
0.0249581
0.0014994
0.0248372
0.00184292
0.00216416
0.024682
0.00666183
-0.015303
-0.00574197
0.00757979
-0.0146042
0.00849445
-0.0135284
0.00940571
-0.0128826
0.0103053
-0.0120665
0.0111999
-0.0116544
0.0120791
-0.0110299
0.0129452
-0.0105834
0.0137999
-0.0101904
0.0146349
-0.00972425
0.0154496
-0.009314
0.0162465
-0.00893385
0.0170238
-0.00853695
0.0177713
-0.00814512
0.0184939
-0.00776806
0.0191912
-0.00737998
0.0198613
-0.00698162
0.0204985
-0.00660942
0.0211028
-0.00624021
0.0216757
-0.00584363
0.022216
-0.00544057
0.0227226
-0.00503151
0.0231915
-0.00467135
0.0236242
-0.00428331
0.0240213
-0.00387063
0.0243821
-0.00345389
0.0247062
-0.00303341
0.0249925
-0.0026311
0.0252406
-0.00225487
0.0254516
-0.00182771
0.0256253
-0.00139845
0.0257617
-0.000967534
0.0258606
-0.000535382
0.0259223
-0.000122008
0.025947
0.000305363
0.0259351
0.000755456
0.0258865
0.00118172
0.0258014
0.00158454
0.0256799
0.00196434
0.00232149
0.0255226
0.00679177
-0.0162542
-0.00584061
0.00774064
-0.0155531
0.00868581
-0.0144736
0.00962686
-0.0138236
0.0105562
-0.0129958
0.0114795
-0.0125777
0.0123872
-0.0119377
0.0132814
-0.0114775
0.0141633
-0.0110723
0.0150253
-0.0105863
0.0158667
-0.0101554
0.0166896
-0.00975678
0.0174923
-0.00933963
0.0182654
-0.00891817
0.0190132
-0.00851587
0.0197351
-0.00810187
0.0204293
-0.00767589
0.0210906
-0.00727068
0.0217186
-0.00686818
0.0223146
-0.00643968
0.0228774
-0.0060034
0.0234059
-0.00555992
0.023896
-0.0051615
0.0243491
-0.00473644
0.0247656
-0.00428715
0.0251449
-0.00383311
0.0254862
-0.00337473
0.0257886
-0.00293351
0.0260514
-0.00251768
0.0262757
-0.00205203
0.0264614
-0.00158408
0.0266081
-0.00111432
0.026716
-0.000643268
0.026785
-0.000190933
0.0268154
0.00027496
0.0268075
0.00076335
0.0267613
0.0012279
0.0266769
0.00166888
0.0265547
0.00208659
0.0024813
0.0263949
0.00693323
-0.0172385
-0.00594887
0.00791491
-0.0165348
0.00889251
-0.0154511
0.00986531
-0.0147964
0.0108262
-0.0139567
0.0117802
-0.0135316
0.0127185
-0.0128759
0.0136425
-0.0124016
0.0145534
-0.0119832
0.0154441
-0.0114769
0.0163138
-0.011025
0.0171642
-0.0106072
0.0179937
-0.0101691
0.0187934
-0.00971797
0.0195674
-0.00928984
0.0203148
-0.00884928
0.021034
-0.00839506
0.0217198
-0.0079565
0.0223719
-0.00752023
0.0229913
-0.00705912
0.0235768
-0.0065889
0.0241271
-0.00611025
0.0246385
-0.00567283
0.0251119
-0.00520986
0.0255477
-0.00472295
0.0259451
-0.00423052
0.0263035
-0.00373312
0.0266217
-0.00325175
0.026899
-0.00279495
0.0271364
-0.00228945
0.0273337
-0.00178136
0.0274906
-0.00127128
0.0276072
-0.0007598
0.0276831
-0.000266891
0.0277189
0.000239194
0.0277148
0.000767494
0.0276707
0.00127196
0.0275868
0.00175275
0.0274634
0.00221003
0.00264395
0.0273007
0.00708587
-0.018258
-0.00606644
0.00810225
-0.0175512
0.00911415
-0.0164631
0.0101206
-0.0158029
0.011115
-0.0149512
0.0121016
-0.0145182
0.0130721
-0.0138465
0.0140279
-0.0133573
0.0149696
-0.0129249
0.0158906
-0.012398
0.0167902
-0.0119246
0.0176696
-0.0114867
0.0185273
-0.0110267
0.0193551
-0.0105458
0.0201563
-0.0100911
0.0209303
-0.00962321
0.0216752
-0.00914
0.0223863
-0.0086676
0.023063
-0.00819694
0.0237063
-0.0077024
0.0243148
-0.0071974
0.0248873
-0.00668272
0.02542
-0.00620551
0.0259137
-0.00570365
0.0263688
-0.00517803
0.0267844
-0.00464608
0.0271597
-0.00410845
0.0274937
-0.00358568
0.0277853
-0.00308654
0.0280356
-0.00253977
0.0282443
-0.00199009
0.0284112
-0.00143818
0.0285361
-0.000884724
0.0286189
-0.000349622
0.0286597
0.000198334
0.028659
0.000768186
0.0286168
0.00131423
0.028533
0.0018365
0.028408
0.00233503
0.00280987
0.0282421
0.00724948
-0.0193143
-0.00619313
0.00830242
-0.0186041
0.00935051
-0.0175111
0.0103925
-0.0168449
0.0114223
-0.0159809
0.0124433
-0.0155391
0.013448
-0.0148512
0.0144372
-0.0143466
0.0154114
-0.0138992
0.0163646
-0.0133512
0.0172956
-0.0128556
0.0182056
-0.0123967
0.0190929
-0.0119141
0.0199501
-0.0114029
0.0207798
-0.0109209
0.0215814
-0.0104248
0.0223531
-0.00991171
0.0230904
-0.00940483
0.0237925
-0.00889905
0.0244602
-0.00837015
0.0250922
-0.00782942
0.0256872
-0.00727773
0.0262416
-0.00675984
0.0267559
-0.00621802
0.0272305
-0.00565254
0.0276642
-0.00507986
0.0280565
-0.00450074
0.0284061
-0.00393526
0.028712
-0.00339239
0.0289751
-0.00280289
0.0291951
-0.00221012
0.0293718
-0.00161484
0.0295049
-0.00101782
0.0295941
-0.00043888
0.0296398
0.000152646
0.0296423
0.000765725
0.0296015
0.00135504
0.0295175
0.00192049
0.0293905
0.002462
0.00297948
0.0292209
0.00742397
-0.0204095
-0.00632881
0.00851534
-0.0196955
0.00960149
-0.0185973
0.010681
-0.0179244
0.0117479
-0.0170478
0.0128052
-0.0165964
0.0138458
-0.0158918
0.0148703
-0.015371
0.0158789
-0.0149078
0.0168658
-0.0143381
0.0178299
-0.0138197
0.0187721
-0.0133389
0.0196907
-0.0128326
0.0205785
-0.0122907
0.0214381
-0.0117805
0.0222685
-0.0112552
0.023068
-0.0107113
0.0238324
-0.0101692
0.0245607
-0.00962741
0.0252537
-0.0090631
0.0259099
-0.00848559
0.0265279
-0.00789581
0.0271044
-0.00733625
0.0276397
-0.00675333
0.0281339
-0.00614673
0.028586
-0.00553205
0.0289954
-0.00491011
0.0293607
-0.00430053
0.0296808
-0.00371251
0.0299567
-0.00307877
0.0301879
-0.00244135
0.0303742
-0.00180111
0.0305153
-0.00115891
0.0306108
-0.000534451
0.0306611
0.000102375
0.0306664
0.000760402
0.0306267
0.00139472
0.0305421
0.00200511
0.0304128
0.00259135
0.00315325
0.030239
0.00760929
-0.0215453
-0.00647344
0.00874099
-0.0208272
0.00986708
-0.0197234
0.0109859
-0.0190432
0.0120919
-0.0181538
0.0131874
-0.0176919
0.0142658
-0.0169702
0.0153273
-0.0164326
0.0163721
-0.0159525
0.0173945
-0.0153605
0.0183933
-0.0148185
0.0193693
-0.0143149
0.0203206
-0.0137839
0.0212405
-0.0132106
0.0221313
-0.0126712
0.0229918
-0.0121157
0.0238204
-0.0115399
0.0246129
-0.0109617
0.0253685
-0.010383
0.0260875
-0.00978211
0.0267686
-0.00916666
0.0274103
-0.0085376
0.0280094
-0.00793528
0.0285661
-0.00731002
0.0290803
-0.00666099
0.0295512
-0.00600292
0.0299778
-0.00533675
0.030359
-0.00468165
0.0306934
-0.00404698
0.0309821
-0.00336743
0.0312245
-0.00268376
0.0314203
-0.00199691
0.0315692
-0.00130785
0.0316709
-0.000636148
0.0317256
4.77495e-05
0.0317335
0.000752493
0.0316946
0.0014336
0.031609
0.00209072
0.0314768
0.00272351
0.00333163
0.0312984
0.00780549
-0.0227238
-0.00662703
0.00897943
-0.0220011
0.0101474
-0.0208913
0.0113075
-0.0202033
0.0124544
-0.0193007
0.01359
-0.0188275
0.014708
-0.0180883
0.0158085
-0.0175331
0.0168911
-0.0170351
0.0179508
-0.0164201
0.0189861
-0.0158539
0.0199975
-0.0153263
0.0209831
-0.0147695
0.0219367
-0.0141642
0.02286
-0.0135946
0.0237519
-0.0130077
0.0246108
-0.0123988
0.0254327
-0.0117835
0.0262164
-0.0111667
0.0269624
-0.0105281
0.0276693
-0.00987347
0.0283355
-0.00920385
0.0289578
-0.00855758
0.0295364
-0.00788866
0.0300712
-0.00719577
0.0305612
-0.00649286
0.0310054
-0.00578097
0.0314026
-0.00507883
0.0317516
-0.00439596
0.0320531
-0.00366896
0.0323067
-0.00293736
0.032512
-0.0022022
0.0326687
-0.00146453
0.0327763
-0.000743816
0.0328351
-1.10264e-05
0.0328453
0.00074226
0.0328069
0.001472
0.03272
0.0021777
0.0325846
0.0028589
0.00351512
0.0324011
0.00801266
-0.0239468
-0.00678963
0.00923081
-0.0232192
0.0104426
-0.0221031
0.0116459
-0.0214066
0.0128356
-0.0204905
0.0140133
-0.0200052
0.0151728
-0.0192478
0.016314
-0.0186742
0.0174364
-0.0181575
0.0185351
-0.0175188
0.0196086
-0.0169274
0.0206571
-0.0163747
0.0216787
-0.0157911
0.0226674
-0.015153
0.0236248
-0.0145519
0.0245496
-0.0139325
0.0254401
-0.0132893
0.0262924
-0.0126358
0.0271055
-0.0119799
0.0278795
-0.0113022
0.028613
-0.0106069
0.0293045
-0.00989538
0.0299509
-0.00920388
0.0305521
-0.00848988
0.0311079
-0.00775162
0.0316174
-0.00700234
0.0320796
-0.00624315
0.0324931
-0.00549237
0.0328568
-0.00475967
0.0331714
-0.00398351
0.0334362
-0.00320223
0.033651
-0.00241697
0.0338154
-0.00162891
0.0339289
-0.000857332
0.0339917
-7.37733e-05
0.034004
0.000729945
0.0339658
0.00151021
0.0338771
0.00226641
0.033738
0.00299794
0.00370418
0.033549
0.00823095
-0.0252164
-0.00696133
0.00949531
-0.0244836
0.0107529
-0.0233607
0.0120014
-0.0226551
0.013236
-0.0217251
0.0144576
-0.0212267
0.0156606
-0.0204508
0.0168444
-0.0198581
0.0180085
-0.0193216
0.019148
-0.0186584
0.0202615
-0.0180408
0.0213487
-0.017462
0.0224079
-0.0168503
0.0234334
-0.0161785
0.0244264
-0.0155448
0.0253854
-0.0148915
0.0263089
-0.0142128
0.027193
-0.0135199
0.0280367
-0.0128235
0.0288398
-0.0121053
0.029601
-0.0113681
0.0303187
-0.0106131
0.0309898
-0.009875
0.0316143
-0.0091144
0.0321919
-0.00832918
0.0327214
-0.00753188
0.033202
-0.00672373
0.0336323
-0.00592264
0.034011
-0.0051384
0.0343388
-0.00431128
0.034615
-0.00347849
0.0348394
-0.0026413
0.0350114
-0.00180094
0.0351307
-0.000976607
0.0351972
-0.000140336
0.0352114
0.000715772
0.0351731
0.00154854
0.0350823
0.00235721
0.0349392
0.00314104
0.00389929
0.0347441
0.00846055
-0.0265347
-0.00714228
0.00977318
-0.0257962
0.0110786
-0.0246661
0.0123744
-0.0239509
0.0136559
-0.0230065
0.0149234
-0.0224943
0.0161718
-0.0216992
0.0174002
-0.0210865
0.0186079
-0.0205292
0.0197901
-0.0198406
0.0209453
-0.019196
0.0220732
-0.0185899
0.0231717
-0.0179489
0.0242356
-0.0172424
0.0252657
-0.0165749
0.0262605
-0.0158864
0.0272184
-0.0151706
0.0281356
-0.0144372
0.029011
-0.013699
0.0298445
-0.0129387
0.0306344
-0.012158
0.0313793
-0.011358
0.0320761
-0.0105718
0.0327247
-0.009763
0.0333246
-0.00892913
0.0338749
-0.0080821
0.0343744
-0.00722323
0.0348218
-0.00637005
0.0352159
-0.00553249
0.0355571
-0.00465253
0.0358449
-0.00376633
0.0360789
-0.00287526
0.0362586
-0.00198066
0.0363836
-0.00110158
0.0364538
-0.000210584
0.0364697
0.000699945
0.036431
0.00158725
0.0363377
0.00245044
0.0361901
0.00328864
0.00410094
0.0359885
0.00870168
-0.0279037
-0.00733264
0.0100647
-0.0271593
0.0114201
-0.0260216
0.0127653
-0.0252961
0.0140957
-0.0243369
0.0154113
-0.02381
0.0167071
-0.022995
0.0179821
-0.0223615
0.0192353
-0.0217824
0.0204621
-0.0210675
0.0216609
-0.0203948
0.0228312
-0.0197601
0.0239709
-0.0190886
0.0250749
-0.0183463
0.0261436
-0.0176437
0.0271758
-0.0169185
0.0281696
-0.0161644
0.0291213
-0.0153889
0.0300298
-0.0146075
0.0308948
-0.0138037
0.0317145
-0.0129778
0.0324877
-0.0121312
0.0332111
-0.0112953
0.0338847
-0.0104365
0.0345078
-0.00955224
0.0350794
-0.00865366
0.0355983
-0.00774222
0.0360634
-0.00683509
0.0364732
-0.00594233
0.0368283
-0.00500756
0.0371279
-0.00406597
0.0373716
-0.003119
0.0375591
-0.00216811
0.0376897
-0.00123222
0.0377635
-0.000284412
0.0377808
0.000682648
0.0377415
0.00162661
0.0376455
0.00254644
0.037493
0.00344113
0.00430962
0.0372843
0.00895463
-0.0293258
-0.00753262
0.0103702
-0.0285749
0.0117778
-0.0274292
0.0131745
-0.0266928
0.0145559
-0.0257183
0.0159218
-0.0251758
0.0172671
-0.0243404
0.0185907
-0.0236851
0.0198914
-0.0230831
0.0211649
-0.0223409
0.0224092
-0.0216392
0.0236237
-0.0209747
0.0248064
-0.0202712
0.0259522
-0.0194921
0.0270614
-0.0187529
0.0281325
-0.0179897
0.0291637
-0.0171956
0.0301515
-0.0163767
0.0310944
-0.0155505
0.0319921
-0.0147014
0.032843
-0.0138286
0.0336455
-0.0129337
0.0343966
-0.0120464
0.035096
-0.0111359
0.0357431
-0.0101993
0.0363367
-0.00924729
0.0368758
-0.00828132
0.037359
-0.00731829
0.037785
-0.00636836
0.0381542
-0.00537673
0.0384659
-0.00437765
0.0387196
-0.00337268
0.0389148
-0.00236338
0.0390511
-0.00136854
0.0391285
-0.000361736
0.0391471
0.000664049
0.0391068
0.00166686
0.0390077
0.00264554
0.0388499
0.00359893
0.00452582
0.0386337
0.0092197
-0.030803
-0.00774245
0.0106902
-0.0300453
0.0121522
-0.0288912
0.0136026
-0.0281432
0.0150373
-0.0271529
0.0164555
-0.026594
0.0178525
-0.0257374
0.0192268
-0.0250594
0.0205772
-0.0244334
0.0218992
-0.023663
0.0231911
-0.022931
0.0244519
-0.0222354
0.0256794
-0.0214987
0.0268688
-0.0206815
0.0280202
-0.0199043
0.0291319
-0.0191014
0.0302021
-0.0182658
0.0312274
-0.0174019
0.0322062
-0.0165293
0.0331381
-0.0156332
0.0340213
-0.0147118
0.0348542
-0.0137666
0.0356341
-0.0128262
0.0363603
-0.0118622
0.0370322
-0.0108713
0.0376487
-0.00986375
0.0382086
-0.00884124
0.0387106
-0.00782025
0.0391533
-0.00681107
0.039537
-0.00576044
0.039861
-0.0047017
0.0401249
-0.00363652
0.0403281
-0.00256657
0.0404701
-0.00151055
0.0405508
-0.000442495
0.0405706
0.000644297
0.0405292
0.00170825
0.0404267
0.00274807
0.0402631
0.00376245
0.00475001
0.0400389
0.00949723
-0.0323379
-0.00796239
0.0110249
-0.031573
0.0125436
-0.0304099
0.0140501
-0.0296498
0.0155403
-0.0286431
0.0170132
-0.0280669
0.0184641
-0.0271883
0.0198913
-0.0264867
0.0212934
-0.0258355
0.0226663
-0.0250358
0.0240077
-0.0242725
0.0253166
-0.0235444
0.0265909
-0.022773
0.0278258
-0.0219164
0.0290212
-0.0210996
0.0301753
-0.0202556
0.0312862
-0.0193767
0.0323506
-0.0184662
0.0333668
-0.0175455
0.0343342
-0.0166006
0.035251
-0.0156287
0.0361157
-0.0146313
0.0369254
-0.0136358
0.0376794
-0.0126162
0.0383772
-0.011569
0.0390173
-0.0105039
0.0395988
-0.00942269
0.0401201
-0.0083416
0.0405801
-0.00727101
0.0409787
-0.00615912
0.0413155
-0.00503844
0.0415897
-0.00391075
0.041801
-0.00277785
0.0419487
-0.0016583
0.0420329
-0.000526645
0.0420536
0.000623529
0.0420109
0.00175101
0.0419046
0.00285435
0.041735
0.00393209
0.00498271
0.0415023
0.00978758
-0.0339327
-0.00819273
0.0113748
-0.0331602
0.0129527
-0.0319878
0.0145177
-0.0312148
0.0160658
-0.0301912
0.0175956
-0.0295967
0.0191027
-0.0286953
0.0205851
-0.0279691
0.0220412
-0.0272916
0.0234669
-0.0264616
0.0248601
-0.0256656
0.0262193
-0.0249036
0.0275424
-0.0240961
0.0288247
-0.0231988
0.0300659
-0.0223409
0.0312642
-0.0214538
0.0324176
-0.02053
0.0335226
-0.0195713
0.0345778
-0.0186007
0.0355821
-0.017605
0.036534
-0.0165805
0.0374317
-0.015529
0.0382724
-0.0144765
0.0390554
-0.0133993
0.0397799
-0.0122935
0.0404446
-0.0111686
0.0410484
-0.0100265
0.0415898
-0.00888301
0.0420675
-0.00774874
0.0424817
-0.00657324
0.0428315
-0.00538824
0.0431164
-0.00419565
0.0433359
-0.00299737
0.0434895
-0.00181187
0.043577
-0.000614161
0.0435986
0.000601867
0.0435543
0.00179534
0.043444
0.00296468
0.0432678
0.00410826
0.00522441
0.0430261
0.0100912
-0.0355901
-0.00843378
0.0117405
-0.0348095
0.01338
-0.0336272
0.0150059
-0.0328408
0.0166144
-0.0317996
0.0182036
-0.0311859
0.0197692
-0.0302609
0.0213091
-0.0295091
0.0228216
-0.028804
0.0243025
-0.0279425
0.0257495
-0.0271126
0.0271611
-0.0263153
0.0285351
-0.02547
0.0298669
-0.0245306
0.0311559
-0.0236299
0.0324002
-0.0226982
0.0335977
-0.0217275
0.0347452
-0.0207187
0.0358409
-0.0196964
0.0368838
-0.0186479
0.0378721
-0.0175689
0.0388042
-0.0164611
0.0396771
-0.0153495
0.0404902
-0.0142123
0.0412425
-0.0130458
0.0419327
-0.0118588
0.0425597
-0.0106534
0.0431219
-0.00944522
0.043618
-0.00824489
0.0440481
-0.00700332
0.0444114
-0.00575153
0.0447073
-0.00449153
0.0449352
-0.00322534
0.0450947
-0.00197136
0.0451856
-0.000705037
0.0452081
0.00057942
0.0451619
0.00184147
0.0450472
0.00307938
0.0448641
0.00429138
0.00547562
0.0446129
0.0104084
-0.0373126
-0.00868588
0.0121224
-0.0365236
0.0138261
-0.0353309
0.0155156
-0.0345303
0.0171869
-0.0334709
0.018838
-0.032837
0.0204646