/*--------------------------------*- C++ -*----------------------------------*\
| =========                 |                                                 |
| \\      /  F ield         | OpenFOAM: The Open Source CFD Toolbox           |
|  \\    /   O peration     | Version:  3.0.1                                 |
|   \\  /    A nd           | Web:      www.OpenFOAM.org                      |
|    \\/     M anipulation  |                                                 |
\*---------------------------------------------------------------------------*/
FoamFile
{
    version     2.0;
    format      ascii;
    class       volVectorField;
    location    "500";
    object      U;
}
// * * * * * * * * * * * * * * * * * * * * * * * * * * * * * * * * * * * * * //

dimensions      [0 1 -1 0 0 0 0];

internalField   nonuniform List<vector> 
58000
(
(0.447497 1.0227 -3.7694e-22)
(0.597742 1.13053 -2.0075e-21)
(0.739702 1.15128 3.14153e-20)
(0.855864 1.10833 -5.47539e-20)
(0.944217 1.03135 2.00441e-20)
(1.00644 0.936252 1.64386e-20)
(1.05338 0.837912 0)
(1.08604 0.745096 -2.14518e-20)
(1.10817 0.655931 5.19943e-20)
(1.1247 0.575445 1.45457e-20)
(1.13686 0.506786 -3.39515e-20)
(1.14507 0.446863 0)
(1.14999 0.39341 0)
(1.15579 0.349388 1.41834e-20)
(1.15819 0.31327 0)
(1.15829 0.282586 -1.28035e-19)
(1.1566 0.256167 1.26735e-19)
(1.15433 0.233775 -1.35511e-20)
(1.15147 0.215075 1.03845e-19)
(1.14768 0.198816 -1.0303e-19)
(1.14343 0.184186 -9.81974e-20)
(1.13848 0.170588 9.7412e-20)
(1.13373 0.158236 0)
(1.12865 0.147157 9.02516e-20)
(1.12312 0.136901 -8.97641e-20)
(1.11733 0.127189 8.61956e-20)
(1.1112 0.117862 3.75771e-21)
(1.1048 0.108907 -8.39735e-20)
(1.0986 0.100634 0)
(1.09194 0.0929752 4.90803e-21)
(1.08494 0.0856964 -4.37213e-20)
(1.07765 0.078822 8.20122e-20)
(1.06953 0.0723815 -7.10174e-22)
(1.06097 0.0664971 -3.54051e-20)
(1.05092 0.0609805 -1.70962e-20)
(1.03844 0.055707 1.83883e-20)
(1.02469 0.0507861 1.12677e-21)
(1.01161 0.0463908 1.10522e-21)
(0.999658 0.0423221 -3.31274e-21)
(0.993739 0.0391947 5.7182e-21)
(0.626716 0.592296 -2.74166e-21)
(0.735406 0.651149 4.22142e-21)
(0.83859 0.692338 0)
(0.936877 0.725019 -1.6328e-21)
(1.02818 0.745509 -8.24653e-21)
(1.11166 0.749345 -9.07671e-22)
(1.18345 0.737024 8.22173e-21)
(1.2414 0.713915 1.54273e-20)
(1.28904 0.680816 -1.65067e-20)
(1.32502 0.640957 0)
(1.34973 0.599433 4.57204e-20)
(1.36605 0.556645 -1.32336e-19)
(1.37511 0.512369 -1.43266e-21)
(1.37722 0.471106 6.47466e-21)
(1.37545 0.434093 1.43499e-19)
(1.37082 0.399101 -8.9521e-20)
(1.36389 0.365926 6.22887e-20)
(1.35567 0.33589 -1.426e-19)
(1.34702 0.309576 -7.38432e-21)
(1.33794 0.285697 6.99011e-20)
(1.32847 0.263449 8.27095e-21)
(1.31874 0.242625 0)
(1.30931 0.223847 0)
(1.30031 0.20713 0)
(1.29138 0.191622 0)
(1.28243 0.176954 7.01398e-20)
(1.27347 0.16304 -6.26581e-20)
(1.2646 0.149981 0)
(1.25613 0.138119 3.34947e-20)
(1.24789 0.127205 -6.47214e-22)
(1.23965 0.116844 -2.58246e-20)
(1.2314 0.107035 -3.68331e-21)
(1.22345 0.0977854 2.48419e-20)
(1.21593 0.0891554 -3.02051e-20)
(1.20909 0.081111 0)
(1.20245 0.0736458 -1.67924e-21)
(1.19579 0.0667836 1.65848e-21)
(1.18934 0.060567 -8.43487e-22)
(1.18325 0.0546389 -3.28103e-21)
(1.17768 0.0492198 3.40335e-21)
(0.649179 0.537494 4.74488e-22)
(0.699535 0.587039 0)
(0.757266 0.625308 0)
(0.821331 0.653636 -1.08167e-21)
(0.886703 0.670916 -7.52178e-21)
(0.952368 0.67859 1.17026e-20)
(1.01573 0.677287 -1.0095e-20)
(1.07352 0.66716 -1.39454e-20)
(1.12818 0.649257 1.43292e-20)
(1.17608 0.625261 0)
(1.21521 0.597035 0)
(1.24802 0.565232 -9.48457e-21)
(1.27538 0.530511 4.56563e-20)
(1.29543 0.496112 -7.9084e-22)
(1.30957 0.462919 -4.76957e-20)
(1.31959 0.430227 1.31106e-20)
(1.32602 0.398452 6.16554e-20)
(1.32914 0.368973 -1.20658e-20)
(1.32968 0.342427 -4.35332e-20)
(1.32841 0.317875 -3.75861e-20)
(1.32572 0.294782 4.34755e-20)
(1.32189 0.273073 1.18813e-20)
(1.31729 0.253372 0)
(1.31224 0.235647 0)
(1.30675 0.219115 -5.79165e-21)
(1.30088 0.20348 -5.30445e-20)
(1.29467 0.188673 4.72645e-20)
(1.28827 0.174788 -5.6468e-21)
(1.28189 0.162101 -2.92512e-21)
(1.27549 0.150308 -2.89164e-21)
(1.26893 0.139019 0)
(1.26224 0.12818 0)
(1.25543 0.11773 -1.90949e-20)
(1.24859 0.107772 2.20138e-20)
(1.24184 0.0984484 2.64181e-21)
(1.23511 0.0897298 5.14886e-23)
(1.22836 0.081586 -1.34558e-21)
(1.22181 0.0740364 0)
(1.21558 0.0669135 2.59043e-21)
(1.20971 0.060036 -2.73025e-21)
(0.718471 0.462436 1.11837e-21)
(0.753022 0.498387 -1.10228e-21)
(0.790367 0.529998 0)
(0.83148 0.55761 -3.42969e-23)
(0.875744 0.57811 2.76215e-21)
(0.922336 0.591848 -2.39697e-21)
(0.969997 0.598422 -4.40334e-22)
(1.01577 0.597946 -6.99558e-21)
(1.06098 0.591228 2.97949e-22)
(1.10336 0.578817 0)
(1.14066 0.561901 -5.08003e-21)
(1.17405 0.541108 3.99672e-20)
(1.20402 0.516819 -2.73395e-20)
(1.22843 0.491175 -8.42397e-21)
(1.24768 0.465064 0)
(1.26333 0.438214 2.61536e-20)
(1.27568 0.411017 -4.37136e-20)
(1.28455 0.38475 -2.62103e-20)
(1.29034 0.360199 4.436e-20)
(1.2939 0.336842 -9.51423e-21)
(1.29573 0.314389 8.76127e-21)
(1.29606 0.292901 -9.54407e-21)
(1.29509 0.273069 -3.64651e-20)
(1.29317 0.254954 3.66138e-20)
(1.2905 0.2379 -4.09897e-21)
(1.28721 0.221669 4.39754e-21)
(1.28338 0.206216 0)
(1.27914 0.191662 4.61025e-21)
(1.27467 0.178289 0)
(1.27 0.165815 4.30841e-21)
(1.26508 0.153876 -1.74996e-20)
(1.25994 0.142443 1.77065e-20)
(1.2546 0.131484 1.7304e-20)
(1.24913 0.121098 -2.37684e-21)
(1.24362 0.111387 -1.94266e-20)
(1.23803 0.102199 9.49596e-21)
(1.2323 0.093408 -8.49992e-21)
(1.22653 0.0850422 0)
(1.22081 0.0770627 1.02287e-21)
(1.21523 0.0694289 0)
(0.755615 0.420088 2.47336e-21)
(0.779895 0.448089 -7.7242e-22)
(0.80647 0.473936 -1.199e-21)
(0.836076 0.498111 4.33024e-22)
(0.868683 0.518084 0)
(0.90404 0.533741 -5.81824e-22)
(0.941489 0.544242 0)
(0.978859 0.548921 -2.71724e-21)
(1.01705 0.548558 5.49372e-21)
(1.05424 0.54315 5.06079e-21)
(1.08837 0.533151 4.0433e-21)
(1.1202 0.519209 -4.62957e-21)
(1.15004 0.501723 1.92186e-20)
(1.17568 0.482065 -2.42921e-20)
(1.1971 0.461012 0)
(1.2156 0.438608 6.33445e-21)
(1.23129 0.415231 0)
(1.24373 0.391974 -5.99028e-21)
(1.25303 0.369615 -7.72115e-22)
(1.26001 0.347873 -2.6859e-20)
(1.26512 0.326602 -1.38173e-20)
(1.26855 0.305931 -1.89065e-23)
(1.27038 0.286561 2.12028e-20)
(1.27092 0.268628 -2.78491e-20)
(1.27049 0.251599 3.54168e-20)
(1.26925 0.235285 3.12334e-20)
(1.2673 0.219671 -2.83807e-20)
(1.26476 0.204892 -2.11917e-20)
(1.26178 0.191233 2.82569e-20)
(1.25844 0.178437 -3.14473e-20)
(1.25475 0.16616 2.82172e-20)
(1.25075 0.154376 3.41712e-21)
(1.24648 0.143059 0)
(1.242 0.132307 -1.19979e-20)
(1.23741 0.122225 1.95216e-22)
(1.2327 0.112652 1.37853e-20)
(1.22783 0.103443 -6.76888e-21)
(1.22282 0.0946239 6.84919e-21)
(1.21775 0.0861897 -4.22763e-21)
(1.21265 0.0781375 3.60063e-21)
(0.788666 0.386019 -2.35063e-21)
(0.8074 0.408162 2.05082e-21)
(0.827364 0.429112 3.97968e-23)
(0.849325 0.449491 -9.94335e-22)
(0.873755 0.467383 1.63326e-22)
(0.900669 0.482735 3.20146e-22)
(0.92996 0.494632 6.06845e-22)
(0.960063 0.502166 -3.34434e-21)
(0.991667 0.505923 4.36279e-21)
(1.02344 0.505483 -1.19498e-20)
(1.05362 0.500835 7.98582e-21)
(1.08264 0.49253 1.12115e-20)
(1.1107 0.48087 -1.69802e-20)
(1.13577 0.466596 3.84774e-21)
(1.15754 0.450362 6.95104e-21)
(1.17707 0.432378 1.68855e-20)
(1.19436 0.41297 -1.71757e-20)
(1.20879 0.393021 4.99188e-21)
(1.22029 0.373259 1.89231e-20)
(1.22957 0.353589 -1.9797e-20)
(1.23702 0.333972 5.45675e-21)
(1.24276 0.314581 2.11747e-20)
(1.24677 0.296098 -1.57768e-20)
(1.2493 0.278722 -5.19483e-21)
(1.2507 0.262041 -2.18911e-20)
(1.25118 0.245924 3.85662e-20)
(1.25081 0.230385 -2.23959e-20)
(1.24971 0.215579 -3.76428e-22)
(1.248 0.201799 2.23425e-20)
(1.24581 0.188821 -4.49155e-20)
(1.24317 0.176334 2.54207e-20)
(1.24015 0.164324 -2.54432e-20)
(1.23678 0.15277 8.77463e-21)
(1.23312 0.141771 2.25512e-20)
(1.22929 0.131433 -1.12986e-20)
(1.22527 0.121591 -1.11015e-20)
(1.22105 0.112096 1.12386e-20)
(1.21664 0.102972 5.53294e-21)
(1.21209 0.0942271 -4.92366e-21)
(1.20743 0.0858814 0)
(0.81377 0.359946 6.39334e-22)
(0.828952 0.377945 -1.32005e-21)
(0.844904 0.395161 1.39529e-21)
(0.862201 0.41221 0)
(0.881351 0.427684 0)
(0.902504 0.441631 0)
(0.925808 0.453304 1.65287e-21)
(0.95021 0.461787 3.05878e-22)
(0.976302 0.467579 -1.18378e-21)
(1.00317 0.470085 1.9202e-21)
(1.0294 0.468986 0)
(1.05525 0.464713 3.13753e-21)
(1.08088 0.457489 4.67315e-21)
(1.10449 0.447564 0)
(1.12565 0.435432 -1.08163e-20)
(1.14519 0.421382 -1.2209e-20)
(1.16303 0.405672 1.24275e-20)
(1.17848 0.388971 -1.40135e-20)
(1.19133 0.371912 1.03154e-20)
(1.20214 0.354529 7.14158e-21)
(1.21127 0.336854 -8.46701e-21)
(1.21876 0.319076 -2.66523e-22)
(1.22449 0.301828 1.26186e-20)
(1.22864 0.285353 3.89416e-22)
(1.23161 0.269351 0)
(1.23356 0.25374 0)
(1.23458 0.238563 -1.78339e-20)
(1.23476 0.223988 3.5649e-20)
(1.2342 0.210312 -1.37793e-20)
(1.23305 0.197352 0)
(1.23137 0.184832 -2.06512e-20)
(1.22924 0.172748 1.671e-22)
(1.22668 0.16109 2.10435e-20)
(1.22377 0.149957 -9.21518e-21)
(1.2206 0.139455 1.1553e-20)
(1.2172 0.12943 9.17142e-21)
(1.21354 0.119739 -9.29024e-21)
(1.20966 0.110405 0)
(1.20557 0.101445 -2.88385e-21)
(1.20133 0.0928879 2.1627e-21)
(0.834461 0.338707 -1.00484e-21)
(0.847207 0.353638 1.29765e-21)
(0.860432 0.367992 0)
(0.874581 0.382334 0)
(0.890125 0.395597 3.88995e-22)
(0.907237 0.407896 -3.90236e-22)
(0.926158 0.41866 -4.74569e-22)
(0.946174 0.427087 -5.32176e-22)
(0.967804 0.433625 1.1433e-21)
(0.990453 0.437662 -4.16073e-22)
(1.01301 0.438739 0)
(1.03569 0.437188 -2.72082e-21)
(1.05861 0.433165 8.86329e-21)
(1.08027 0.426586 -9.51889e-21)
(1.10019 0.417798 7.01129e-22)
(1.11902 0.407101 0)
(1.13663 0.394677 0)
(1.15233 0.380994 4.81988e-21)
(1.1658 0.366574 1.72631e-20)
(1.17751 0.351528 -4.7098e-20)
(1.18773 0.335925 1.75459e-20)
(1.19645 0.319952 6.03714e-21)
(1.20348 0.304172 3.4683e-21)
(1.20893 0.288848 1.06621e-20)
(1.21318 0.273777 -1.3748e-20)
(1.21639 0.258921 7.38903e-21)
(1.21862 0.244343 -3.42249e-21)
(1.21995 0.23022 -2.19007e-20)
(1.22044 0.216847 -7.39737e-21)
(1.22024 0.204084 0)
(1.21946 0.191695 0)
(1.21816 0.179685 -1.51919e-20)
(1.21638 0.168055 1.16863e-20)
(1.21418 0.156906 1.86766e-21)
(1.21165 0.146346 5.67516e-21)
(1.20883 0.136237 -7.72886e-21)
(1.20571 0.126442 9.38861e-22)
(1.20232 0.116988 0)
(1.19868 0.107896 4.71551e-22)
(1.19483 0.0991978 2.623e-22)
(0.851546 0.321065 -8.35995e-23)
(0.862526 0.333663 -1.29926e-23)
(0.87382 0.345801 1.38275e-21)
(0.885774 0.357976 6.85374e-22)
(0.898789 0.369356 4.86602e-22)
(0.913027 0.380085 2.47066e-22)
(0.928746 0.389734 -2.14917e-22)
(0.945445 0.397633 3.81739e-22)
(0.963578 0.404194 -7.24797e-22)
(0.982761 0.408857 -1.11097e-21)
(1.00215 0.411135 4.15472e-21)
(1.02191 0.411287 -8.47965e-22)
(1.04218 0.409428 -6.11934e-21)
(1.06173 0.40528 1.10466e-20)
(1.08008 0.399062 -7.61042e-21)
(1.09776 0.391059 1.04994e-20)
(1.11463 0.381386 -2.17757e-21)
(1.13003 0.370343 -3.56097e-20)
(1.14359 0.358334 2.49536e-20)
(1.15567 0.345505 -4.82017e-21)
(1.16648 0.331944 0)
(1.17597 0.317819 1.02778e-20)
(1.1839 0.303609 -1.5671e-20)
(1.19032 0.289581 -1.60974e-20)
(1.19557 0.27561 2.20942e-20)
(1.1998 0.261688 -1.70333e-20)
(1.20305 0.247892 2.64341e-20)
(1.20536 0.234403 3.11132e-21)
(1.20678 0.221507 3.15611e-21)
(1.20745 0.209104 -2.97079e-21)
(1.2075 0.196997 0)
(1.20698 0.185201 -3.06843e-21)
(1.20593 0.173728 3.30804e-21)
(1.20441 0.162679 8.03377e-21)
(1.20249 0.152168 -1.13823e-20)
(1.20023 0.14207 8.00469e-21)
(1.19764 0.132261 -7.3558e-21)
(1.19473 0.12277 0)
(1.19153 0.113622 -1.64515e-21)
(1.18808 0.104849 1.73462e-21)
(0.865942 0.306081 0)
(0.875578 0.316859 -1.83548e-21)
(0.885431 0.32725 -1.5303e-21)
(0.895771 0.337686 -6.91394e-22)
(0.906937 0.347502 -5.39047e-22)
(0.919069 0.356846 0)
(0.932405 0.365393 2.28984e-23)
(0.946586 0.372594 -2.88676e-22)
(0.961997 0.378823 -1.3899e-22)
(0.978392 0.383598 -3.91872e-22)
(0.995126 0.386454 -7.27924e-22)
(1.01235 0.387602 5.82905e-21)
(1.0302 0.387136 2.82336e-21)
(1.04769 0.384681 2.04402e-21)
(1.06438 0.380367 -1.99546e-21)
(1.08071 0.374445 3.8352e-22)
(1.09654 0.366979 5.55685e-21)
(1.11127 0.358141 0)
(1.12451 0.348228 -1.40304e-20)
(1.13656 0.337396 1.0451e-20)
(1.14755 0.325731 0)
(1.15743 0.313378 2.43541e-20)
(1.1659 0.300732 -2.099e-20)
(1.17298 0.288047 4.16876e-21)
(1.17896 0.275254 1.8271e-20)
(1.18397 0.262368 -1.4085e-20)
(1.18803 0.249473 0)
(1.19116 0.236743 0)
(1.19337 0.224453 -4.85138e-21)
(1.19481 0.212539 2.65779e-21)
(1.1956 0.200838 1.0427e-20)
(1.19578 0.189376 -7.86512e-21)
(1.19541 0.178172 0)
(1.19452 0.167329 1.70191e-22)
(1.19318 0.156963 -9.48501e-21)
(1.19147 0.146966 5.40825e-21)
(1.18938 0.137228 0)
(1.18694 0.127779 -2.75372e-21)
(1.18417 0.118646 1.75885e-21)
(1.18113 0.109863 -1.78181e-22)
(0.878217 0.29315 5.63499e-22)
(0.886796 0.302477 4.87137e-22)
(0.895532 0.311467 6.71368e-22)
(0.904641 0.320495 9.31277e-23)
(0.914406 0.329015 5.72951e-23)
(0.924946 0.337172 0)
(0.936472 0.344715 -1.83069e-22)
(0.948714 0.35119 -5.91045e-22)
(0.961999 0.356938 2.58756e-22)
(0.976164 0.361551 -3.25852e-22)
(0.990715 0.36461 -7.79349e-22)
(1.00578 0.366293 -4.46623e-21)
(1.02151 0.366681 -3.45766e-21)
(1.03711 0.36537 2.58368e-21)
(1.0522 0.362422 1.80113e-21)
(1.06712 0.358062 -5.9735e-21)
(1.08178 0.352315 1.81331e-21)
(1.09563 0.345259 -4.50611e-21)
(1.10831 0.337105 2.13644e-21)
(1.12004 0.328002 -1.39667e-20)
(1.13091 0.318027 1.18427e-20)
(1.14086 0.307297 -1.35454e-20)
(1.14959 0.296129 1.33933e-20)
(1.15705 0.284755 -1.82089e-20)
(1.16351 0.273147 1.82168e-20)
(1.16907 0.261332 -1.96287e-20)
(1.17374 0.249393 -2.55758e-22)
(1.17751 0.237496 2.02257e-20)
(1.18037 0.225898 -4.05771e-21)
(1.18245 0.214564 8.5448e-21)
(1.18388 0.203362 -4.23424e-21)
(1.18469 0.192327 0)
(1.18492 0.181483 0)
(1.18461 0.170934 2.37663e-21)
(1.18381 0.160797 -4.4798e-21)
(1.1826 0.15098 -1.17797e-21)
(1.18099 0.141387 3.05786e-23)
(1.179 0.13205 4.74833e-21)
(1.17666 0.122998 6.12239e-22)
(1.17401 0.114264 1.6045e-22)
(0.888799 0.281843 -1.74652e-22)
(0.896524 0.289991 6.73309e-22)
(0.904367 0.297839 -5.16941e-22)
(0.912505 0.305713 -4.56558e-22)
(0.921174 0.313158 -4.71778e-22)
(0.930477 0.320307 1.67436e-22)
(0.940594 0.326964 -1.41893e-22)
(0.951316 0.33275 -2.43058e-22)
(0.96292 0.337975 -1.07272e-22)
(0.975295 0.342295 1.76767e-21)
(0.988057 0.345342 -1.79939e-21)
(1.00132 0.34727 -2.88389e-21)
(1.01523 0.348153 -1.68032e-21)
(1.02915 0.34759 3.33189e-22)
(1.04274 0.345606 0)
(1.05632 0.342395 0)
(1.06978 0.33796 1.40646e-20)
(1.08267 0.332314 4.04735e-22)
(1.09464 0.3256 -5.12714e-22)
(1.10586 0.317954 4.86198e-21)
(1.11641 0.309439 1.01367e-20)
(1.12621 0.300147 -1.30585e-20)
(1.13495 0.290327 -6.06462e-21)
(1.14257 0.280184 -3.93043e-22)
(1.14931 0.269714 -3.57851e-21)
(1.15522 0.258951 1.26622e-20)
(1.16032 0.247975 0)
(1.16456 0.236938 -2.81729e-22)
(1.16793 0.226077 0)
(1.17053 0.215378 -3.4883e-21)
(1.17248 0.204737 3.851e-21)
(1.17382 0.194193 -7.59876e-21)
(1.17458 0.183778 1.14723e-20)
(1.17477 0.173592 -9.74469e-21)
(1.17447 0.163751 1.19043e-20)
(1.17372 0.15418 -3.98672e-21)
(1.17256 0.144795 9.99411e-22)
(1.17099 0.13563 4.0793e-21)
(1.16905 0.126716 -1.0201e-21)
(1.16678 0.118087 9.44476e-22)
(0.898007 0.271847 -2.9232e-22)
(0.905024 0.279022 -2.9301e-22)
(0.912135 0.285926 -3.97101e-22)
(0.919487 0.292844 8.40822e-22)
(0.927276 0.299389 1.78169e-21)
(0.935591 0.305684 -7.46353e-22)
(0.944586 0.311569 0)
(0.954093 0.31673 -4.31453e-23)
(0.964349 0.321442 5.91791e-22)
(0.975274 0.325416 0)
(0.986565 0.328334 7.78117e-22)
(0.998325 0.33033 2.27203e-21)
(1.01068 0.331474 3.36744e-21)
(1.02313 0.331388 -1.32673e-21)
(1.03539 0.330074 -2.49413e-21)
(1.04771 0.327698 6.81813e-21)
(1.06003 0.324251 2.8562e-21)
(1.07194 0.319704 -1.21385e-20)
(1.08314 0.314151 -3.97742e-22)
(1.09375 0.30771 -3.54393e-21)
(1.10385 0.300432 8.33248e-21)
(1.11333 0.292386 -4.30334e-21)
(1.12193 0.283764 -4.88174e-21)
(1.12954 0.274741 9.93129e-21)
(1.13637 0.26533 -1.49855e-20)
(1.14247 0.255567 0)
(1.14783 0.245524 1.13041e-20)
(1.1524 0.235338 -1.44776e-20)
(1.15613 0.225225 0)
(1.15913 0.215186 3.19334e-21)
(1.16151 0.205141 -6.33453e-21)
(1.16329 0.195129 6.44843e-21)
(1.16449 0.185187 -3.429e-21)
(1.16512 0.175413 1.74266e-21)
(1.16525 0.165919 -1.09782e-22)
(1.16492 0.156644 -5.10712e-21)
(1.16416 0.147519 2.58671e-21)
(1.16298 0.138576 1.75253e-21)
(1.16142 0.129849 -2.66089e-21)
(1.1595 0.12137 1.15614e-21)
(0.906082 0.262931 -2.68858e-22)
(0.912503 0.269292 -6.7637e-22)
(0.919002 0.275406 1.24906e-21)
(0.925701 0.281521 -6.65385e-22)
(0.932767 0.287308 -5.06393e-22)
(0.940275 0.292875 5.76183e-22)
(0.948357 0.298093 -3.04085e-22)
(0.956876 0.302696 1.25939e-22)
(0.966033 0.306928 -2.46693e-22)
(0.97577 0.310548 -1.10018e-21)
(0.985842 0.313278 3.94338e-22)
(0.996341 0.315239 -9.75644e-22)
(1.00739 0.316496 2.71603e-21)
(1.01856 0.316702 4.90917e-22)
(1.02964 0.315845 -3.355e-21)
(1.04082 0.314071 2.08823e-21)
(1.05207 0.311362 2.6419e-21)
(1.06304 0.307666 -2.13118e-21)
(1.07346 0.30304 -2.98911e-21)
(1.08342 0.297584 3.26511e-21)
(1.09298 0.29134 -3.1992e-21)
(1.10206 0.284357 -3.80852e-21)
(1.11039 0.276779 -7.90352e-21)
(1.11786 0.268756 1.19137e-20)
(1.12466 0.260309 4.51961e-21)
(1.13082 0.251472 -4.34556e-21)
(1.1363 0.242309 9.57511e-21)
(1.14107 0.232942 -9.70534e-21)
(1.14506 0.223562 0)
(1.14835 0.214185 -1.05448e-20)
(1.15105 0.204745 1.07288e-20)
(1.15317 0.195285 -5.57264e-21)
(1.15473 0.185843 8.41994e-21)
(1.15574 0.176512 8.6278e-21)
(1.15623 0.1674 -7.4065e-21)
(1.15626 0.15846 1.53921e-21)
(1.15586 0.149632 0)
(1.15504 0.14095 -3.04435e-21)
(1.15382 0.132449 2.71354e-21)
(1.15223 0.124159 -5.42546e-23)
(0.913212 0.254916 4.90616e-22)
(0.919122 0.260589 3.66265e-22)
(0.925099 0.266034 2.79449e-22)
(0.931247 0.271469 0)
(0.937707 0.276611 0)
(0.944544 0.281556 0)
(0.951869 0.286196 -6.15123e-23)
(0.959569 0.290305 4.08576e-23)
(0.967816 0.294101 0)
(0.976567 0.297378 3.3868e-22)
(0.98562 0.299897 0)
(0.995057 0.301764 -1.68623e-21)
(1.00499 0.303041 2.72134e-21)
(1.01506 0.303415 -1.12388e-21)
(1.0251 0.302866 -1.49149e-21)
(1.03527 0.301523 0)
(1.04554 0.299364 -4.1562e-21)
(1.05563 0.296324 4.01227e-21)
(1.06528 0.292434 4.88528e-21)
(1.07459 0.287779 -4.95005e-21)
(1.08359 0.282392 5.64574e-21)
(1.0922 0.276306 2.89716e-21)
(1.10018 0.269629 -6.66327e-21)
(1.10744 0.262486 6.42996e-21)
(1.11411 0.254902 -1.09294e-20)
(1.12021 0.246907 6.93014e-23)
(1.12572 0.238558 1.17971e-20)
(1.13058 0.22996 8.47966e-21)
(1.13472 0.221284 -2.15974e-20)
(1.13821 0.212551 1.79662e-20)
(1.14115 0.203712 2.37006e-21)
(1.14353 0.194806 -7.19799e-21)
(1.14538 0.185873 -2.54678e-21)
(1.14669 0.177 -2.60492e-21)
(1.14748 0.168292 0)
(1.14782 0.159712 1.25564e-21)
(1.14774 0.151209 1.27419e-21)
(1.14722 0.142818 0)
(1.14631 0.134572 6.73197e-22)
(1.14502 0.126503 -4.46307e-23)
(0.919545 0.247664 3.05687e-22)
(0.925012 0.252748 8.42566e-22)
(0.930538 0.257622 -6.09312e-22)
(0.936213 0.262476 -4.52407e-22)
(0.942156 0.267065 0)
(0.948423 0.271474 0)
(0.95511 0.275613 0)
(0.962122 0.279287 0)
(0.969606 0.28269 -4.40939e-22)
(0.977528 0.285647 -1.54372e-22)
(0.98572 0.287949 0)
(0.994256 0.289692 -1.41181e-21)
(1.00323 0.290933 1.42598e-21)
(1.01236 0.291393 3.20429e-21)
(1.02148 0.291049 -4.69929e-21)
(1.03075 0.290013 2.56109e-21)
(1.04014 0.288263 -1.65828e-21)
(1.04942 0.285729 1.69481e-21)
(1.05835 0.282422 -4.11661e-21)
(1.06701 0.278417 2.09398e-21)
(1.07544 0.273736 -2.49673e-21)
(1.08357 0.268404 -2.69522e-21)
(1.09117 0.262498 0)
(1.09814 0.256122 -5.8941e-21)
(1.10461 0.249302 3.25471e-21)
(1.11059 0.242064 3.432e-21)
(1.11604 0.234457 -2.80945e-22)
(1.12091 0.226572 3.46639e-21)
(1.12512 0.218558 7.51375e-21)
(1.12873 0.210441 -3.7411e-21)
(1.13183 0.202182 -2.08409e-21)
(1.1344 0.193821 -1.46912e-22)
(1.13646 0.185394 8.56122e-21)
(1.13801 0.176985 -8.70926e-21)
(1.13905 0.168691 0)
(1.13965 0.160485 -2.26364e-21)
(1.13983 0.152324 -1.18513e-21)
(1.13959 0.144243 0)
(1.13894 0.136275 -3.03653e-22)
(1.13792 0.128451 0)
(0.925199 0.241064 -1.22351e-22)
(0.930277 0.245641 -8.9654e-22)
(0.935409 0.250022 -1.83545e-22)
(0.940672 0.254376 8.82695e-22)
(0.946168 0.258488 0)
(0.951945 0.262432 -5.21082e-22)
(0.958087 0.266135 3.20999e-22)
(0.964511 0.269426 1.27952e-22)
(0.971346 0.272478 -1.28662e-22)
(0.978562 0.275139 2.67687e-22)
(0.98602 0.277231 0)
(0.993783 0.278838 0)
(1.00194 0.280011 0)
(1.01024 0.280503 -1.60758e-21)
(1.01856 0.280291 2.14167e-21)
(1.02704 0.279473 -2.17109e-21)
(1.03564 0.278027 0)
(1.04417 0.275883 -4.47036e-21)
(1.05243 0.273039 -7.00213e-21)
(1.06048 0.269561 1.67022e-20)
(1.06836 0.265463 -7.78881e-21)
(1.07599 0.260762 0)
(1.08319 0.255513 0)
(1.08985 0.249802 2.63119e-21)
(1.09607 0.243654 8.01179e-21)
(1.10187 0.23709 -5.53083e-21)
(1.1072 0.230153 7.6307e-23)
(1.11202 0.22292 -1.26517e-20)
(1.11624 0.215521 9.57526e-21)
(1.1199 0.207985 9.23707e-23)
(1.12309 0.20028 0)
(1.12579 0.192444 -1.86878e-21)
(1.12801 0.184511 1.79618e-21)
(1.12973 0.17656 1.98305e-21)
(1.13098 0.168682 2.54502e-23)
(1.13179 0.160857 -2.92362e-21)
(1.13219 0.153047 2.01273e-21)
(1.13217 0.145289 -4.08077e-21)
(1.13176 0.137614 2.57147e-21)
(1.13098 0.130052 0)
(0.93027 0.235028 -3.54971e-23)
(0.935003 0.239164 -2.7989e-22)
(0.939786 0.243117 0)
(0.944686 0.247037 3.40876e-22)
(0.949791 0.250733 0)
(0.955143 0.254275 8.20783e-22)
(0.960812 0.257595 -1.91765e-22)
(0.966729 0.260548 1.29593e-23)
(0.973003 0.263287 -3.19401e-22)
(0.979613 0.26568 0)
(0.986437 0.267572 -6.44115e-22)
(0.993534 0.269039 -1.03059e-21)
(1.00098 0.270127 1.2157e-21)
(1.00857 0.270617 1.95278e-21)
(1.01618 0.270487 -3.16107e-21)
(1.02395 0.269822 0)
(1.03184 0.268604 0)
(1.0397 0.266761 2.33798e-22)
(1.04734 0.264287 6.00529e-21)
(1.05482 0.261236 -6.0762e-21)
(1.06217 0.25762 -3.85395e-21)
(1.06932 0.253448 -4.10583e-21)
(1.07611 0.248758 3.97533e-21)
(1.08244 0.243621 0)
(1.08839 0.238062 7.0065e-21)
(1.09397 0.232096 -1.95e-20)
(1.09915 0.225759 1.27679e-20)
(1.10386 0.219118 -1.08671e-20)
(1.10803 0.212286 5.55123e-21)
(1.11169 0.205291 -2.14121e-22)
(1.11492 0.198109 6.12595e-21)
(1.11769 0.190772 -1.25696e-20)
(1.12002 0.183316 4.76125e-21)
(1.12187 0.175812 -6.60182e-21)
(1.12327 0.168344 5.15089e-21)
(1.12425 0.160897 -3.48545e-21)
(1.12483 0.153443 3.53038e-21)
(1.12501 0.146013 2.67e-21)
(1.12479 0.13864 -2.73548e-21)
(1.12421 0.131352 0)
(0.934837 0.229483 0)
(0.939261 0.233233 0)
(0.943733 0.236812 -2.0591e-23)
(0.948311 0.240352 -3.98411e-22)
(0.953069 0.243687 3.49122e-22)
(0.958046 0.246874 -1.27149e-21)
(0.963301 0.24986 9.08046e-23)
(0.968775 0.252514 1.23115e-23)
(0.974562 0.254974 6.66394e-22)
(0.980644 0.257125 -6.59289e-22)
(0.986918 0.258831 7.30592e-22)
(0.993434 0.26016 7.23946e-23)
(1.00026 0.261155 -1.18456e-21)
(1.00722 0.261622 8.68377e-22)
(1.01421 0.261538 4.49139e-21)
(1.02135 0.260981 -3.21487e-21)
(1.02861 0.259932 -2.27829e-21)
(1.03586 0.258324 8.70196e-21)
(1.04293 0.256146 7.57758e-21)
(1.04988 0.253445 -1.09425e-20)
(1.05673 0.250227 8.852e-21)
(1.06342 0.246499 -6.01517e-21)
(1.06981 0.242285 3.67164e-21)
(1.0758 0.237645 -3.61811e-21)
(1.08146 0.232599 3.85198e-21)
(1.08681 0.227162 0)
(1.09179 0.221361 0)
(1.09637 0.215256 2.4418e-21)
(1.10045 0.208942 0)
(1.10408 0.202447 -2.65383e-21)
(1.1073 0.195753 0)
(1.1101 0.188888 8.22271e-21)
(1.11249 0.181887 -2.8928e-21)
(1.11443 0.174812 1.52031e-21)
(1.11594 0.167743 1.55791e-21)
(1.11705 0.16067 0)
(1.11777 0.153568 0)
(1.11811 0.146467 -8.1972e-22)
(1.11806 0.1394 1.22086e-21)
(1.11766 0.132393 -8.14201e-22)
(0.938964 0.22437 2.2544e-22)
(0.943111 0.22778 0)
(0.947303 0.23103 4.69039e-23)
(0.951591 0.234237 3.02061e-22)
(0.95604 0.237252 -9.53389e-22)
(0.960683 0.240129 1.09971e-21)
(0.965573 0.242819 -1.88749e-22)
(0.970655 0.245209 0)
(0.976014 0.24742 -1.75837e-22)
(0.981634 0.249353 3.52571e-22)
(0.987424 0.250888 5.35507e-22)
(0.99343 0.252086 -5.28806e-23)
(0.99971 0.252985 -1.10729e-21)
(1.00612 0.253415 1.98755e-21)
(1.01256 0.253354 1.34567e-21)
(1.01914 0.252872 0)
(1.02583 0.251949 -1.79045e-21)
(1.03252 0.250526 -4.23565e-21)
(1.03908 0.248587 -2.64994e-21)
(1.04554 0.246171 7.22692e-21)
(1.05192 0.243286 -5.0213e-21)
(1.05818 0.239931 2.95457e-21)
(1.06417 0.236124 0)
(1.06983 0.231912 3.41399e-21)
(1.0752 0.227316 -3.63372e-21)
(1.08029 0.222345 0)
(1.08507 0.217023 3.77483e-21)
(1.08949 0.211399 8.34914e-21)
(1.09346 0.205557 -1.30482e-20)
(1.09701 0.199523 8.84776e-21)
(1.1002 0.193281 4.71621e-21)
(1.103 0.18686 -7.31014e-21)
(1.1054 0.180287 -2.59789e-21)
(1.1074 0.173623 -2.50757e-21)
(1.10899 0.16694 0)
(1.11019 0.16023 0)
(1.11102 0.153474 0)
(1.11148 0.1467 6.81858e-22)
(1.11158 0.139938 -7.13544e-22)
(1.11132 0.133215 6.95684e-22)
(0.942706 0.21964 -3.59694e-22)
(0.946601 0.222749 3.37414e-22)
(0.95054 0.225707 -2.83866e-22)
(0.954567 0.22862 -2.07123e-22)
(0.958738 0.231353 5.84758e-22)
(0.963081 0.233956 -4.79605e-22)
(0.967645 0.236384 1.44426e-23)
(0.972379 0.238539 2.24514e-23)
(0.977358 0.240528 3.82543e-22)
(0.982569 0.242264 -9.89992e-22)
(0.987931 0.243642 -3.01852e-22)
(0.993486 0.244717 -3.55956e-22)
(0.999285 0.245523 1.33871e-21)
(1.0052 0.245909 -2.0825e-21)
(1.01115 0.245855 1.0047e-21)
(1.01723 0.245422 2.8023e-21)
(1.02342 0.244596 -2.82818e-21)
(1.02961 0.243317 1.79935e-21)
(1.03569 0.241572 3.44471e-22)
(1.04169 0.239393 -1.82219e-21)
(1.04764 0.236785 0)
(1.05349 0.233746 0)
(1.05911 0.230287 0)
(1.06444 0.226448 5.88875e-21)
(1.06953 0.222244 -5.96393e-21)
(1.07437 0.217684 0)
(1.07893 0.212788 -3.569e-21)
(1.08317 0.207597 7.34209e-21)
(1.087 0.202184 -1.13894e-20)
(1.09046 0.196573 0)
(1.09358 0.19075 4.15988e-21)
(1.09635 0.184741 -2.16063e-21)
(1.09875 0.178573 -4.46416e-21)
(1.10077 0.172298 6.91068e-21)
(1.1024 0.165984 -2.45094e-21)
(1.10367 0.159625 5.94499e-21)
(1.10459 0.153205 0)
(1.10515 0.146751 -3.90723e-23)
(1.10535 0.140292 3.07615e-22)
(1.10522 0.133852 -1.8025e-23)
(0.946109 0.21525 1.90375e-22)
(0.949775 0.218091 -2.46311e-23)
(0.953482 0.220791 2.71809e-22)
(0.957271 0.223442 4.01122e-22)
(0.96119 0.225925 0)
(0.965264 0.228284 3.66877e-22)
(0.969533 0.230479 -8.48584e-23)
(0.973956 0.232425 1.33428e-23)
(0.978596 0.234215 -2.88325e-22)
(0.983442 0.235775 6.81355e-22)
(0.988423 0.23701 -6.86723e-22)
(0.993576 0.237971 -1.27034e-21)
(0.998947 0.238687 1.38524e-21)
(1.00442 0.239026 -3.39329e-21)
(1.00993 0.238968 7.45972e-22)
(1.01556 0.238569 2.17041e-21)
(1.02129 0.237814 -1.27865e-21)
(1.02703 0.236651 -1.44392e-21)
(1.03268 0.235063 3.4794e-21)
(1.03827 0.233081 -1.74449e-21)
(1.04381 0.230707 1.93919e-21)
(1.04928 0.227937 0)
(1.05455 0.224778 0)
(1.05956 0.221261 0)
(1.06437 0.217401 5.5154e-21)
(1.06895 0.213206 -2.51036e-21)
(1.0733 0.20869 -5.92765e-21)
(1.07735 0.203888 -3.08044e-21)
(1.08104 0.198863 -6.78849e-21)
(1.08439 0.193639 1.02566e-20)
(1.08742 0.188202 7.36184e-21)
(1.09013 0.182577 -1.14369e-20)
(1.09251 0.176787 5.78657e-21)
(1.09452 0.17088 0)
(1.09618 0.164916 2.04216e-21)
(1.09749 0.158895 -7.49356e-21)
(1.09846 0.152799 1.11246e-21)
(1.0991 0.146658 -1.11149e-21)
(1.09939 0.140495 -1.12942e-21)
(1.09936 0.134335 6.31364e-22)
(0.949211 0.211165 -3.12841e-22)
(0.952667 0.213767 -2.14666e-23)
(0.956163 0.216235 4.43249e-22)
(0.959734 0.218653 -7.04289e-22)
(0.963423 0.220913 3.2181e-22)
(0.967252 0.223055 0)
(0.971256 0.225043 0)
(0.975396 0.226801 0)
(0.979732 0.228415 1.35719e-22)
(0.98425 0.229815 -3.72173e-22)
(0.98889 0.230921 1.47624e-21)
(0.993683 0.231776 -7.41135e-22)
(0.99867 0.232408 -1.83547e-21)
(1.00375 0.232698 1.38193e-21)
(1.00887 0.232629 1.90888e-21)
(1.01409 0.232251 -1.92675e-21)
(1.01941 0.231551 1.21859e-21)
(1.02474 0.230481 1.37547e-21)
(1.03 0.229024 2.84703e-21)
(1.0352 0.227206 1.69009e-21)
(1.04037 0.22503 -5.26053e-21)
(1.04548 0.22249 3.98393e-21)
(1.05042 0.21959 -2.02309e-21)
(1.05513 0.216354 -4.58451e-21)
(1.05966 0.212798 1.18207e-20)
(1.064 0.208925 -2.31666e-21)
(1.06812 0.204747 2.59044e-21)
(1.07198 0.200295 2.92622e-21)
(1.07552 0.195624 6.01655e-21)
(1.07874 0.190752 -3.73246e-23)
(1.08168 0.185672 -3.2456e-21)
(1.08432 0.180402 -1.74019e-21)
(1.08665 0.174965 -1.80426e-21)
(1.08864 0.169403 0)
(1.09029 0.163773 -3.74591e-21)
(1.09162 0.158073 -3.94582e-23)
(1.09264 0.15229 2.92009e-21)
(1.09333 0.14645 4.465e-21)
(1.09369 0.140577 -2.51077e-21)
(1.09375 0.134692 9.63398e-22)
(0.952045 0.207354 7.12732e-22)
(0.955308 0.209742 -3.86866e-22)
(0.95861 0.212003 -6.09523e-22)
(0.961981 0.214212 1.82696e-22)
(0.965459 0.216273 0)
(0.969064 0.21822 0)
(0.972826 0.220023 0)
(0.976711 0.221613 -3.0778e-23)
(0.98077 0.223067 -3.51303e-22)
(0.984992 0.224325 1.20552e-22)
(0.989324 0.225313 0)
(0.993793 0.226071 1.44871e-21)
(0.998435 0.226624 -8.49388e-22)
(1.00316 0.226867 -1.23767e-21)
(1.00792 0.226783 1.70365e-21)
(1.01278 0.226418 -5.45068e-21)
(1.01772 0.22576 1.9691e-21)
(1.02268 0.224764 -2.27821e-21)
(1.02758 0.223416 -2.71664e-21)
(1.03243 0.221738 -2.99719e-21)
(1.03726 0.21973 3.03176e-21)
(1.04203 0.217389 0)
(1.04666 0.214713 -1.91956e-21)
(1.05109 0.211725 -4.0688e-21)
(1.05535 0.208436 1.92486e-21)
(1.05945 0.204849 0)
(1.06335 0.200974 -2.46627e-21)
(1.06702 0.196838 -2.42498e-21)
(1.0704 0.192486 0)
(1.07349 0.187937 -2.85061e-21)
(1.07632 0.183184 -8.7895e-21)
(1.07888 0.178244 9.05799e-21)
(1.08114 0.173135 -6.26791e-21)
(1.0831 0.167898 1.62794e-21)
(1.08474 0.162582 0)
(1.08607 0.157188 -3.41157e-21)
(1.08711 0.151705 3.45014e-21)
(1.08784 0.146156 0)
(1.08825 0.140563 -2.32146e-22)
(1.08837 0.134947 0)
(0.954641 0.203792 -5.85299e-22)
(0.957725 0.205987 -1.99322e-22)
(0.960847 0.208061 1.99454e-22)
(0.964034 0.210082 0)
(0.967318 0.211964 0)
(0.970717 0.213737 -9.2843e-23)
(0.974258 0.215374 7.22994e-23)
(0.977909 0.216814 5.08768e-23)
(0.981717 0.218125 2.30832e-22)
(0.985671 0.219253 5.10688e-22)
(0.989723 0.220134 -5.13848e-22)
(0.993898 0.220804 0)
(0.998227 0.221284 -7.02128e-23)
(1.00263 0.221481 2.293e-21)
(1.00707 0.221381 1.52685e-21)
(1.0116 0.221023 1.62454e-22)
(1.0162 0.220397 0)