/*--------------------------------*- C++ -*----------------------------------*\
| =========                 |                                                 |
| \\      /  F ield         | OpenFOAM: The Open Source CFD Toolbox           |
|  \\    /   O peration     | Version:  3.0.1                                 |
|   \\  /    A nd           | Web:      www.OpenFOAM.org                      |
|    \\/     M anipulation  |                                                 |
\*---------------------------------------------------------------------------*/
FoamFile
{
    version     2.0;
    format      ascii;
    class       volScalarField;
    location    "450";
    object      nuTilda;
}
// * * * * * * * * * * * * * * * * * * * * * * * * * * * * * * * * * * * * * //

dimensions      [0 2 -1 0 0 0 0];

internalField   nonuniform List<scalar> 
58000
(
0.000790063
0.000739004
0.000664261
0.000594777
0.000539967
0.00049731
0.000468076
0.000444475
0.000428384
0.000418392
0.000411109
0.000406745
0.000405501
0.00040403
0.000402536
0.000401823
0.000402006
0.000402761
0.000403858
0.000405345
0.000407267
0.000409408
0.000411757
0.000414096
0.000416632
0.000419038
0.000421465
0.000423872
0.000426112
0.000428318
0.000430246
0.000431984
0.00043347
0.000434633
0.00043555
0.000435658
0.000434775
0.000433523
0.000432294
0.000432789
0.00292284
0.00260363
0.00224865
0.00192685
0.00166843
0.00146369
0.00130728
0.0011825
0.0010865
0.00101504
0.000958611
0.000915811
0.000883967
0.000858185
0.000834722
0.000816347
0.000802668
0.000790792
0.000779611
0.000770467
0.000763876
0.000758224
0.000753015
0.000747962
0.00074465
0.000741674
0.000738743
0.000735807
0.000732715
0.000730371
0.000728218
0.000724729
0.000719987
0.000714286
0.000708059
0.000700634
0.000693017
0.000686305
0.000681009
0.00067971
0.00514366
0.00476068
0.00431119
0.00383943
0.00340798
0.00303344
0.00273486
0.00248926
0.00229141
0.00213787
0.00201373
0.00191203
0.00183583
0.00177524
0.00172358
0.0016837
0.00165391
0.00162922
0.00160738
0.00159005
0.00157747
0.00156671
0.0015566
0.00154655
0.00153913
0.00153133
0.00152234
0.00151238
0.00150143
0.00149192
0.00148235
0.00147226
0.00146165
0.00145019
0.00143774
0.0014228
0.00140583
0.00138856
0.0013726
0.00136428
0.00735725
0.00693375
0.00641742
0.00587227
0.00534742
0.00485614
0.00443888
0.00408012
0.00378127
0.00354322
0.00334319
0.00317648
0.00304757
0.00294252
0.00285166
0.00277956
0.00272373
0.0026769
0.00263567
0.00260223
0.00257656
0.00255426
0.00253199
0.00250926
0.0024911
0.0024745
0.00245768
0.00244037
0.002422
0.00240517
0.00238784
0.00236921
0.00234936
0.00232836
0.0023071
0.00228306
0.00225646
0.00222918
0.00220338
0.00218583
0.00954724
0.00910264
0.00855207
0.00796189
0.00737406
0.00681226
0.00631282
0.00586401
0.00547469
0.00515412
0.00487784
0.00464225
0.00445553
0.00430062
0.00416504
0.00405535
0.00396853
0.00389451
0.00382831
0.00377296
0.00372785
0.00368768
0.00364988
0.00361319
0.00358383
0.00355616
0.00352779
0.00349861
0.00346839
0.00344197
0.003415
0.00338619
0.00335557
0.00332329
0.00329112
0.00325596
0.00321776
0.00317856
0.00314102
0.00311193
0.0117097
0.0112525
0.0106837
0.0100648
0.00944172
0.00883086
0.00827389
0.00776159
0.00730152
0.00691078
0.00656585
0.00626473
0.00602008
0.00581357
0.00563055
0.00547923
0.00535671
0.00525114
0.00515494
0.00507254
0.00500515
0.00494532
0.00488999
0.00483559
0.00478933
0.00474705
0.00470526
0.0046635
0.00462015
0.00458023
0.00454103
0.00450084
0.00445826
0.00441339
0.00436863
0.00432071
0.00426934
0.00421666
0.00416573
0.00412314
0.0138479
0.013383
0.0128051
0.0121706
0.0115265
0.0108834
0.0102868
0.00972442
0.00921093
0.00876485
0.00836268
0.00800238
0.00770314
0.00744639
0.00721687
0.00702263
0.00686181
0.00672045
0.00659205
0.00648152
0.00639057
0.00630816
0.00623019
0.00615566
0.00609261
0.00603424
0.00597649
0.00591862
0.00586061
0.00580658
0.00575355
0.00569976
0.00564319
0.00558399
0.00552494
0.00546272
0.00539675
0.00532925
0.00526351
0.00520583
0.0159654
0.0154955
0.0149131
0.0142709
0.0136147
0.0129516
0.0123267
0.0117304
0.011176
0.0106825
0.0102309
0.00982191
0.00947494
0.00917156
0.00889514
0.00865868
0.00846064
0.0082848
0.00812391
0.00798412
0.00786543
0.00775854
0.0076578
0.00756213
0.00747848
0.00740181
0.00732736
0.00725259
0.00717714
0.00710777
0.0070396
0.00697043
0.00689831
0.00682341
0.00674874
0.00667096
0.00658923
0.00650574
0.00642398
0.00634988
0.0180657
0.0175923
0.017008
0.0163621
0.0156992
0.015025
0.0143815
0.0137613
0.0131744
0.0126466
0.0121559
0.0117034
0.0113135
0.010968
0.0106497
0.0103736
0.0101403
0.00993034
0.00973627
0.00956501
0.00941851
0.00928698
0.00916217
0.00904262
0.00893822
0.00884182
0.0087475
0.00865478
0.00856128
0.00847473
0.00838965
0.00830267
0.00821413
0.00812269
0.00803142
0.00793706
0.00783853
0.00773805
0.0076392
0.00754756
0.0201517
0.0196758
0.0190913
0.018444
0.0177761
0.0170972
0.0164426
0.0158064
0.0151964
0.014641
0.0141172
0.0136309
0.0132052
0.0128227
0.0124663
0.0121528
0.0118829
0.0116394
0.0114136
0.0112133
0.011039
0.0108805
0.0107315
0.0105882
0.0104605
0.0103437
0.0102292
0.0101168
0.0100038
0.00989852
0.00979548
0.00969056
0.00958431
0.00947531
0.00936636
0.00925437
0.00913809
0.00901971
0.00890283
0.00879272
0.0222258
0.0217482
0.0211646
0.0205183
0.0198493
0.0191673
0.0185053
0.0178578
0.0172315
0.0166538
0.0161058
0.0155912
0.0151349
0.0147187
0.0143284
0.0139813
0.0136789
0.0134047
0.0131479
0.012917
0.0127148
0.0125307
0.0123556
0.0121887
0.0120381
0.0118986
0.0117635
0.0116295
0.0114964
0.011371
0.0112498
0.0111266
0.0110021
0.0108756
0.0107478
0.0106172
0.0104823
0.0103453
0.0102097
0.0100803
0.0242901
0.0238112
0.0232291
0.022585
0.021917
0.0212341
0.0205673
0.0199105
0.0192741
0.0186806
0.0181131
0.0175737
0.0170908
0.0166484
0.0162293
0.0158522
0.0155196
0.0152141
0.0149276
0.0146691
0.0144399
0.0142286
0.0140285
0.013836
0.0136626
0.013501
0.0133445
0.0131889
0.0130336
0.0128886
0.0127483
0.0126054
0.012462
0.0123166
0.0121697
0.0120202
0.0118664
0.0117103
0.0115554
0.0114063
0.0263462
0.0258662
0.025286
0.0246447
0.0239789
0.0232969
0.0226281
0.021966
0.0213217
0.0207162
0.0201335
0.0195749
0.0190701
0.018604
0.0181589
0.0177548
0.017395
0.017062
0.0167473
0.0164601
0.0162053
0.0159685
0.0157422
0.0155256
0.0153275
0.0151426
0.0149649
0.0147883
0.0146117
0.0144463
0.0142861
0.0141233
0.0139599
0.0137947
0.0136285
0.0134597
0.0132866
0.013111
0.0129364
0.0127671
0.0283955
0.0279144
0.0273362
0.0266982
0.0260353
0.0253554
0.0246862
0.0240214
0.0233714
0.0227566
0.0221616
0.0215881
0.0210652
0.020578
0.0201088
0.01968
0.0192954
0.0189385
0.0185983
0.018285
0.0180033
0.0177424
0.0174919
0.0172513
0.0170294
0.0168209
0.0166198
0.0164224
0.0162248
0.0160387
0.0158584
0.0156753
0.0154911
0.0153065
0.0151208
0.0149326
0.0147399
0.0145446
0.0143499
0.01416
0.0304397
0.0299567
0.0293803
0.0287459
0.0280865
0.0274095
0.0267411
0.0260752
0.0254216
0.0247995
0.0241935
0.023609
0.0230712
0.0225652
0.0220777
0.0216281
0.0212207
0.0208385
0.0204735
0.0201365
0.0198301
0.019544
0.0192706
0.0190063
0.0187613
0.0185302
0.0183059
0.0180875
0.017869
0.0176612
0.0174612
0.0172583
0.0170541
0.0168496
0.0166441
0.0164362
0.0162236
0.0160082
0.0157932
0.0155824
0.0324756
0.0319924
0.0314187
0.0307883
0.0301328
0.0294592
0.0287927
0.0281269
0.0274714
0.0268443
0.0262306
0.0256362
0.0250857
0.024565
0.0240613
0.0235935
0.0231657
0.0227612
0.0223722
0.0220101
0.0216792
0.0213707
0.0210742
0.0207844
0.0205173
0.0202663
0.0200207
0.0197801
0.0195416
0.0193131
0.0190918
0.0188696
0.0186457
0.0184213
0.0181958
0.0179679
0.0177353
0.0174995
0.0172639
0.0170319
0.0345055
0.0340225
0.0334518
0.0328257
0.0321746
0.031505
0.0308408
0.0301762
0.0295199
0.0288895
0.0282701
0.0276676
0.027105
0.0265731
0.0260557
0.0255718
0.0251259
0.024701
0.0242886
0.0239047
0.0235512
0.0232186
0.0228993
0.0225885
0.0222998
0.0220284
0.0217617
0.0214996
0.0212408
0.0209918
0.0207498
0.0205077
0.0202637
0.0200192
0.0197736
0.0195255
0.0192726
0.0190163
0.0187599
0.0185066
0.0365304
0.0360476
0.0354801
0.0348587
0.0342123
0.0335468
0.0328856
0.0322227
0.0315667
0.0309342
0.0303108
0.0297022
0.0291307
0.0285881
0.0280584
0.0275601
0.0270977
0.0266545
0.0262216
0.0258154
0.025442
0.0250879
0.0247476
0.0244153
0.0241051
0.0238132
0.0235257
0.0232427
0.0229638
0.0226944
0.022432
0.0221699
0.0219057
0.021641
0.021375
0.0211066
0.0208334
0.0205566
0.0202792
0.0200046
0.0385502
0.0380679
0.0375038
0.0368875
0.0362463
0.0355851
0.034927
0.0342665
0.0336114
0.0329778
0.0323517
0.0317386
0.0311598
0.030608
0.0300675
0.0295561
0.0290783
0.0286188
0.0281676
0.0277418
0.0273494
0.026974
0.0266115
0.02626
0.0259295
0.0256173
0.0253096
0.0250063
0.0247076
0.0244181
0.0241355
0.0238535
0.0235692
0.0232841
0.0229979
0.0227093
0.0224157
0.0221184
0.0218202
0.0215241
0.0405652
0.0400834
0.0395229
0.0389119
0.0382773
0.0376197
0.036965
0.0363072
0.0356536
0.0350199
0.0343921
0.0337756
0.033191
0.0326313
0.0320813
0.031558
0.031065
0.0305912
0.0301239
0.0296799
0.0292672
0.0288738
0.0284918
0.0281211
0.0277706
0.0274373
0.0271107
0.0267879
0.0264697
0.0261604
0.025858
0.0255563
0.025252
0.0249466
0.0246402
0.0243316
0.0240179
0.0237002
0.0233812
0.0230637
0.042575
0.0420941
0.0415371
0.0409312
0.040302
0.0396497
0.038999
0.0383445
0.0376932
0.03706
0.0364316
0.0358126
0.0352233
0.0346568
0.0340986
0.0335652
0.0330599
0.0325708
0.0320889
0.0316284
0.0311979
0.0307863
0.0303855
0.0299961
0.0296264
0.0292735
0.0289278
0.0285856
0.0282478
0.0279192
0.0275974
0.0272763
0.0269522
0.0266258
0.0263002
0.0259721
0.0256385
0.0253004
0.0249607
0.024622
0.0445797
0.0440999
0.0435467
0.0429458
0.0423219
0.041675
0.0410289
0.0403782
0.0397297
0.0390979
0.0384698
0.0378492
0.0372561
0.0366835
0.0361179
0.0355758
0.0350614
0.0345597
0.034062
0.0335853
0.0331388
0.0327091
0.0322899
0.0318823
0.0314943
0.0311227
0.0307586
0.0303972
0.0300392
0.0296925
0.029352
0.0290121
0.0286687
0.0283227
0.0279775
0.0276297
0.0272762
0.0269179
0.0265575
0.0261976
0.046579
0.0461006
0.0455514
0.0449561
0.0443371
0.0436957
0.0430546
0.0424084
0.0417627
0.0411328
0.0405068
0.0398845
0.0392895
0.0387104
0.0381379
0.0375874
0.0370632
0.0365501
0.0360391
0.0355473
0.0350837
0.0346387
0.0342028
0.0337766
0.0333721
0.0329831
0.0326013
0.0322216
0.0318448
0.0314796
0.0311207
0.0307621
0.0303999
0.030035
0.0296705
0.029303
0.0289296
0.0285511
0.0281702
0.0277892
0.0485722
0.0480955
0.0475509
0.0469622
0.0463475
0.0457114
0.0450756
0.0444353
0.0437918
0.0431634
0.0425386
0.041916
0.0413189
0.0407356
0.0401573
0.0395994
0.0390658
0.038542
0.038019
0.0375138
0.0370352
0.036575
0.0361231
0.0356803
0.0352592
0.0348533
0.0344542
0.0340568
0.033662
0.0332789
0.0329017
0.0325248
0.0321444
0.0317619
0.0313776
0.0309904
0.0305972
0.0301988
0.0297975
0.0293957
0.0505588
0.0500842
0.0495442
0.0489607
0.0483516
0.0477214
0.0470908
0.0464554
0.0458157
0.0451895
0.0445661
0.0439439
0.0433453
0.0427588
0.0421757
0.0416109
0.0410686
0.0405346
0.0400006
0.039483
0.0389907
0.0385163
0.0380493
0.0375909
0.0371539
0.0367314
0.0363157
0.0359013
0.035489
0.0350884
0.0346934
0.0342987
0.0339002
0.0334995
0.0330963
0.03269
0.0322775
0.0318595
0.0314383
0.0310159
0.0525381
0.052066
0.0515317
0.0509526
0.0503491
0.0497253
0.0491006
0.0484698
0.0478343
0.047211
0.0465894
0.0459682
0.0453688
0.0447802
0.0441927
0.0436215
0.0430707
0.0425268
0.0419826
0.0414536
0.0409487
0.0404609
0.0399798
0.0395066
0.0390543
0.038616
0.0381842
0.0377533
0.0373243
0.0369068
0.0364945
0.0360823
0.035666
0.0352473
0.0348258
0.0344009
0.0339695
0.0335322
0.0330913
0.0326488
0.0545092
0.0540398
0.0535099
0.0529364
0.0523393
0.0517225
0.0511051
0.0504784
0.0498473
0.0492277
0.0486083
0.0479888
0.047389
0.0468
0.0462082
0.0456306
0.0450715
0.044517
0.0439639
0.0434245
0.0429078
0.0424074
0.0419129
0.0414258
0.0409591
0.0405055
0.0400582
0.0396115
0.0391665
0.0387326
0.0383035
0.0378743
0.0374407
0.0370044
0.0365649
0.0361218
0.0356719
0.0352159
0.0347558
0.0342934
0.0564713
0.056006
0.0554796
0.0549119
0.0543216
0.053712
0.0531008
0.0524797
0.051854
0.0512396
0.0506221
0.0500055
0.0494044
0.048814
0.0482209
0.0476375
0.0470708
0.0465069
0.0459443
0.0453947
0.0448668
0.0443544
0.0438475
0.0433472
0.0428666
0.0423985
0.0419359
0.0414745
0.0410143
0.0405646
0.0401194
0.0396736
0.0392232
0.0387696
0.0383127
0.0378518
0.0373839
0.0369095
0.0364306
0.035949
0.0584229
0.0579607
0.0574395
0.0568784
0.0562955
0.0556945
0.0550884
0.0544732
0.0538532
0.0532428
0.0526284
0.0520142
0.0514138
0.0508219
0.0502267
0.0496405
0.0490672
0.0484938
0.047922
0.0473627
0.0468242
0.0463008
0.0457821
0.0452695
0.0447758
0.0442936
0.0438156
0.0433412
0.0428667
0.0424019
0.0419409
0.0414791
0.0410123
0.0405421
0.0400682
0.03959
0.0391046
0.0386123
0.0381151
0.0376147
0.0603637
0.0599047
0.0593892
0.0588354
0.05826
0.0576663
0.0570668
0.0564583
0.0558456
0.0552385
0.0546275
0.0540158
0.0534176
0.0528238
0.0522258
0.0516349
0.051055
0.0504744
0.0498949
0.049327
0.0487789
0.0482451
0.0477156
0.0471915
0.0466856
0.0461903
0.0456986
0.0452107
0.0447225
0.044243
0.043767
0.0432896
0.042807
0.0423206
0.0418303
0.0413354
0.040833
0.0403234
0.0398084
0.0392897
0.062293
0.0618376
0.0613283
0.0607825
0.0602158
0.0596282
0.0590355
0.058434
0.0578275
0.0572253
0.0566195
0.0560091
0.0554119
0.0548189
0.0542188
0.0536218
0.053034
0.0524477
0.0518617
0.0512863
0.0507295
0.0501863
0.0496467
0.0491121
0.0485948
0.0480873
0.0475829
0.0470822
0.0465806
0.0460872
0.0455965
0.0451041
0.0446061
0.0441042
0.0435981
0.0430871
0.0425683
0.042042
0.0415099
0.0409735
0.0642101
0.0637587
0.063256
0.0627191
0.062159
0.0615789
0.0609939
0.0604009
0.0597996
0.0592025
0.0586009
0.0579935
0.057397
0.0568029
0.0562005
0.0556005
0.055006
0.0544138
0.0538217
0.0532395
0.0526749
0.0521232
0.0515745
0.0510301
0.0505023
0.0499835
0.0494672
0.0489543
0.04844
0.0479333
0.0474286
0.0469214
0.0464085
0.045892
0.0453709
0.0448445
0.0443099
0.0437674
0.0432188
0.0426655
0.0661141
0.065667
0.065171
0.0646417
0.0640895
0.0635178
0.0629408
0.0623552
0.0617611
0.0611706
0.0605724
0.0599692
0.0593737
0.0587771
0.0581715
0.057566
0.0569678
0.056371
0.0557738
0.0551857
0.0546142
0.0540548
0.0534978
0.0529447
0.0524071
0.0518778
0.0513505
0.0508261
0.0502999
0.0497804
0.0492622
0.0487401
0.0482138
0.0476835
0.047148
0.0466068
0.046057
0.045499
0.0449345
0.044365
0.0680041
0.0675616
0.0670738
0.066551
0.0660072
0.0654446
0.0648768
0.0642976
0.0637114
0.0631255
0.0625329
0.0619318
0.0613371
0.0607407
0.0601322
0.0595217
0.0589194
0.0583186
0.0577171
0.057124
0.0565464
0.0559802
0.0554159
0.0548547
0.0543083
0.0537693
0.0532318
0.0526967
0.0521592
0.0516278
0.0510969
0.0505616
0.050022
0.0494782
0.0489288
0.0483733
0.0478089
0.047236
0.0466564
0.0460717
0.069879
0.069441
0.0689602
0.0684458
0.0679112
0.0673587
0.0667981
0.0662264
0.065647
0.0650667
0.0644786
0.0638815
0.0632875
0.0626893
0.0620762
0.0614641
0.0608592
0.0602554
0.0596506
0.0590534
0.0584707
0.0578986
0.0573278
0.0567595
0.056205
0.0556572
0.0551102
0.054565
0.0540171
0.0534744
0.0529317
0.0523841
0.0518319
0.0512751
0.0507125
0.0501433
0.049565
0.0489779
0.0483838
0.0477848
0.0717382
0.0713046
0.0708308
0.0703255
0.069801
0.0692567
0.0687048
0.0681421
0.0675688
0.0669952
0.0664108
0.0658147
0.0652203
0.0646193
0.0640059
0.0633929
0.0627866
0.0621807
0.0615735
0.0609731
0.0603862
0.0598091
0.0592326
0.0586581
0.0580963
0.0575404
0.0569847
0.0564303
0.0558725
0.0553194
0.0547656
0.0542065
0.0536424
0.0530734
0.0524981
0.0519159
0.0513243
0.0507238
0.0501162
0.0495041
0.0735809
0.0731517
0.0726848
0.0721893
0.071673
0.0711381
0.0705962
0.0700411
0.0694759
0.0689072
0.0683252
0.0677321
0.0671375
0.0665345
0.0659208
0.0653077
0.0647007
0.0640938
0.0634851
0.0628825
0.0622923
0.061711
0.0611297
0.0605497
0.0599815
0.0594182
0.0588545
0.0582915
0.0577245
0.0571617
0.0565977
0.0560279
0.0554527
0.0548722
0.054285
0.0536904
0.0530863
0.052473
0.051853
0.051229
0.0754065
0.0749814
0.0745207
0.0740336
0.0735268
0.0730027
0.0724691
0.0719231
0.0713644
0.0707992
0.0702215
0.0696299
0.0690335
0.068432
0.0678198
0.0672077
0.066601
0.0659938
0.0653846
0.0647807
0.0641881
0.0636035
0.0630183
0.0624335
0.0618596
0.0612897
0.0607188
0.0601478
0.0595718
0.0590004
0.0584271
0.0578475
0.057262
0.0566707
0.0560722
0.055466
0.05485
0.0542249
0.0535934
0.0529591
0.0772141
0.0767931
0.0763382
0.0758589
0.0753623
0.074847
0.0743234
0.0737851
0.0732315
0.0726712
0.0720964
0.0715048
0.0709111
0.0703122
0.0697025
0.0690923
0.0684867
0.0678803
0.0672714
0.0666671
0.0660732
0.0654861
0.0648975
0.0643088
0.0637299
0.0631542
0.0625768
0.0619986
0.0614148
0.0608352
0.0602532
0.0596645
0.0590694
0.0584681
0.057859
0.0572419
0.0566147
0.0559786
0.0553368
0.0546939
0.0790033
0.0785862
0.0781368
0.0776642
0.077176
0.0766709
0.0761561
0.0756245
0.0750781
0.0745204
0.0739474
0.0733603
0.0727704
0.0721749
0.0715685
0.0709611
0.0703575
0.0697526
0.0691449
0.0685412
0.0679471
0.067358
0.0667668
0.0661747
0.0655914
0.0650106
0.0644275
0.063843
0.0632522
0.0626651
0.062075
0.061478
0.0608745
0.0602637
0.0596446
0.059017
0.0583795
0.0577334
0.0570825
0.056433
0.0807731
0.08036
0.0799158
0.0794496
0.0789683
0.0784712
0.0779645
0.077442
0.0769026
0.0763484
0.0757793
0.0751968
0.0746113
0.0740199
0.0734175
0.0728136
0.0722128
0.0716101
0.0710042
0.0704021
0.0698098
0.0692185
0.068625
0.0680302
0.0674434
0.0668582
0.06627
0.0656798
0.0650828
0.0644889
0.0638915
0.0632871
0.0626769
0.0620565
0.0614277
0.0607905
0.0601434
0.0594883
0.0588298
0.0581759
0.0825231
0.082114
0.081675
0.0812148
0.08074
0.0802499
0.0797503
0.0792352
0.0787028
0.0781545
0.0775909
0.0770139
0.0764335
0.0758468
0.0752491
0.0746494
0.0740519
0.0734521
0.0728487
0.0722484
0.0716573
0.0710656
0.070471
0.0698745
0.0692849
0.068696
0.0681035
0.0675082
0.0669057
0.0663056
0.0657016
0.0650902
0.0644728
0.0638444
0.0632071
0.0625612
0.0619055
0.0612425
0.060578
0.0599221
0.0842523
0.0838474
0.0834138
0.0829595
0.0824911
0.0820077
0.0815147
0.0810065
0.0804811
0.0799393
0.079382
0.0788113
0.0782366
0.0776553
0.0770628
0.0764678
0.0758742
0.075278
0.0746777
0.0740799
0.0734901
0.0728989
0.0723041
0.0717068
0.0711152
0.0705232
0.0699269
0.0693271
0.0687197
0.0681141
0.0675042
0.0668865
0.0662624
0.0656268
0.0649819
0.0643282
0.0636649
0.0629952
0.0623262
0.061671
0.0859599
0.0855595
0.0851314
0.0846832
0.0842211
0.0837443
0.083258
0.0827566
0.0822381
0.0817032
0.0811527
0.0805888
0.0800203
0.0794448
0.0788581
0.0782682
0.0776792
0.0770871
0.0764907
0.0758959
0.0753079
0.0747179
0.0741236
0.0735266
0.0729334
0.0723388
0.0717392
0.0711353
0.0705237
0.0699135
0.0692984
0.0686752
0.068045
0.067403
0.0667513
0.0660906
0.0654207
0.0647454
0.0640737
0.063422
0.0876453
0.0872496
0.086827
0.0863851
0.0859295
0.0854595
0.0849798
0.0844853
0.0839738
0.083446
0.0829027
0.0823458
0.081784
0.0812147
0.0806342
0.0800501
0.0794662
0.0788787
0.0782868
0.0776962
0.0771104
0.0765217
0.0759287
0.0753337
0.0747385
0.0741417
0.0735396
0.072931
0.0723167
0.0717028
0.0710833
0.0704553
0.0698199
0.0691723
0.0685145
0.0678477
0.067172
0.0664923
0.0658195
0.0651744
0.0893076
0.0889167
0.0885001
0.0880646
0.0876156
0.0871524
0.0866796
0.0861921
0.0856879
0.0851674
0.0846315
0.084082
0.0835271
0.0829645
0.0823906
0.0818127
0.0812343
0.0806521
0.0800654
0.0794807
0.0788965
0.0783093
0.0777177
0.0771239
0.0765284
0.0759305
0.0753276
0.0747156
0.0740982
0.0734812
0.0728582
0.0722262
0.0715863
0.0709337
0.0702707
0.0695984
0.0689178
0.0682349
0.0675628
0.0669272
0.0909459
0.0905603
0.0901496
0.0897207
0.0892786
0.0888225
0.0883567
0.0878765
0.0873797
0.0868667
0.0863385
0.0857967
0.0852491
0.0846935
0.0841266
0.0835552
0.0829829
0.0824064
0.0818251
0.0812452
0.0806642
0.0800795
0.07949
0.0788975
0.0783024
0.0777038
0.0770984
0.0764858
0.075867
0.0752476
0.074622
0.0739873
0.0733434
0.0726864
0.0720187
0.0713417
0.0706572
0.0699721
0.0693024
0.0686793
0.0925597
0.0921794
0.0917751
0.091353
0.0909179
0.090469
0.0900105
0.0895376
0.0890486
0.0885434
0.088023
0.0874892
0.0869491
0.0864009
0.0858413
0.085277
0.0847112
0.0841409
0.0835655
0.0829905
0.0824133
0.0818317
0.0812448
0.0806541
0.0800598
0.0794612
0.0788552
0.0782419
0.0776221
0.0770013
0.0763739
0.0757383
0.0750903
0.0744293
0.0737575
0.0730767
0.072389
0.071703
0.0710372
0.0704296
0.0941482
0.0937735
0.0933756
0.0929605
0.0925326
0.0920912
0.0916401
0.091175
0.0906938
0.0901966
0.0896844
0.0891588
0.0886266
0.088086
0.0875341
0.0869772
0.0864184
0.085855
0.0852863
0.0847161
0.0841429
0.083565
0.0829816
0.082393
0.0817999
0.0812018
0.080596
0.0799828
0.0793628
0.0787411
0.0781124
0.0774752
0.0768247
0.0761608
0.0754859
0.0748021
0.0741122
0.0734262
0.072766
0.0721767
0.0957107
0.0953419
0.0949506
0.0945426
0.0941221
0.0936884
0.093245
0.0927877
0.0923147
0.0918258
0.091322
0.0908048
0.0902807
0.0897481
0.0892042
0.0886551
0.0881039
0.0875481
0.0869877
0.0864215
0.0858522
0.0852784
0.0847003
0.0841132
0.0835214
0.0829245
0.0823197
0.0817073
0.081088
0.0804661
0.0798366
0.0791981
0.078546
0.07788
0.077203
0.076517
0.0758257
0.0751408
0.0744876
0.073919
0.0972467
0.0968839
0.0964994
0.0960988
0.0956858
0.09526
0.0948244
0.0943752
0.0939106
0.0934302
0.092935
0.0924265
0.0919108
0.0913864
0.0908509
0.09031
0.0897667
0.089219
0.0886653
0.0881045
0.0875399
0.0869703
0.0863963
0.0858123
0.085223
0.0846279
0.0840251
0.0834146
0.0827971
0.0821756
0.0815456
0.0809064
0.0802533
0.0795862
0.0789077
0.0782203
0.0775286
0.0768456
0.0762006
0.0756549
0.0987555
0.0983989
0.0980215
0.0976283
0.0972231
0.0968052
0.0963777
0.0959369
0.095481
0.0950094
0.0945229
0.0940232
0.0935161
0.0930002
0.0924734
0.091941
0.0914062
0.090868
0.0903199
0.0897645
0.089205
0.08864
0.0880701
0.08749
0.0869039
0.0863108
0.0857112
0.0851039
0.0844902
0.0838687
0.0832381
0.0825991
0.0819459
0.0812784
0.0805992
0.0799113
0.0792198
0.0785395
0.0779037
0.0773828
0.100237
0.0998866
0.0995162
0.0991307
0.0987333
0.0983235
0.0979043
0.097472
0.0970251
0.0965626
0.0960852
0.0955943
0.095096
0.0945889
0.094071
0.0935475
0.0930213
0.0924911
0.0919499
0.0914008
0.0908469
0.0902868
0.089721
0.0891455
0.0885636
0.0879741
0.0873777
0.0867741
0.0861632
0.0855434
0.0849139
0.0842757
0.083623
0.0829558
0.0822767
0.0815889
0.0808983
0.0802215
0.0795957
0.0791009
0.10169
0.101346
0.100983
0.100605
0.100216
0.0998145
0.0994036
0.0989801
0.0985425
0.0980899
0.0976211
0.0971392
0.0966498
0.0961517
0.0956431
0.095129
0.094612
0.0940893
0.0935552
0.0930128
0.0924651
0.0919103
0.0913479
0.0907784
0.0902016
0.0896168
0.0890251
0.0884255
0.0878174
0.0871996
0.086572
0.0859352
0.0852838
0.0846176
0.0839393
0.0832522
0.0825631
0.0818903
0.0812751
0.0808074
0.103115
0.102778
0.102422
0.102052
0.101671
0.101278
0.100875
0.10046
0.100032
0.099591
0.0991302
0.0986571
0.0981768
0.0976881
0.0971892
0.0966849
0.0961784
0.0956623
0.0951352
0.0946
0.0940591
0.0935105
0.0929534
0.0923891
0.0918172
0.0912378
0.090653
0.0900575
0.0894516
0.0888363
0.0882112
0.0875768
0.0869274
0.086263
0.0855861
0.0849004
0.0842134
0.083545
0.0829407
0.0825006
0.104511
0.104181
0.103832
0.10347
0.103097
0.102712
0.102318
0.101913
0.101494
0.101062
0.100611
0.100147
0.0996764
0.0991974
0.0987086
0.0982146
0.0977168
0.0972084
0.096689
0.0961617
0.0956288
0.0950867
0.0945353
0.0939765
0.093409
0.0928357
0.0922568
0.0916662
0.0910638
0.0904521
0.0898311
0.0891998
0.0885532
0.0878911
0.0872163
0.0865325
0.085848
0.0851844
0.0845911
0.0841789
0.105877
0.105554
0.105214
0.10486
0.104495
0.104119
0.103733
0.103336
0.102927
0.102504
0.102063
0.101609
0.101148
0.100679
0.100201
0.0997183
0.0992278
0.0987272
0.098216
0.0976973
0.0971742
0.096638
0.0960926
0.0955397
0.094978
0.0944107
0.0938376
0.0932524
0.0926548
0.0920478
0.0914315
0.0908039
0.0901604
0.0895011
0.0888288
0.0881476
0.0874661
0.0868074
0.0862253
0.0858405
0.107215
0.106899
0.106566
0.10622
0.105864
0.105496
0.105119
0.104731
0.104331
0.103918
0.103486
0.103043
0.102592
0.102134
0.101666
0.101192
0.10071
0.100218
0.0997156
0.0992058
0.0986913
0.0981626
0.0976242
0.0970777
0.0965227
0.0959619
0.095395
0.0948158
0.0942238
0.0936223
0.0930125
0.0923882
0.091748
0.091092
0.0904228
0.0897446
0.0890666
0.0884132
0.0878419
0.0874841
0.108523
0.108214
0.107889
0.107551
0.107203
0.106844
0.106476
0.106097
0.105706
0.105302
0.104881
0.104447
0.104007
0.10356
0.103104
0.102638
0.102164
0.101681
0.101187
0.100687
0.100181
0.0996604
0.0991295
0.0985893
0.0980424
0.097489
0.0969289
0.0963559
0.09577
0.0951743
0.0945701
0.0939505
0.0933146
0.0926627
0.0919973
0.0913227
0.0906486
0.0900005
0.0894399
0.0891083
0.109801
0.1095
0.109183
0.108853
0.108513
0.108163
0.107804
0.107434
0.107052
0.106658
0.106246
0.105823
0.105393
0.104958
0.10451
0.104053
0.103589
0.103115
0.102631
0.102143
0.101644
0.101131
0.100608
0.100076
0.0995374
0.0989918
0.0984386
0.0978723
0.0972927
0.0967032
0.0961047
0.0954904
0.0948595
0.0942123
0.0935514
0.092881
0.0922112
0.0915687
0.0910183
0.0907118
0.11105
0.110756
0.110447
0.110125
0.109794
0.109453
0.109102
0.108741
0.108369
0.107985
0.107583
0.10717
0.10675
0.106324
0.105886
0.105439
0.104984
0.10452
0.104047
0.103568
0.103078
0.102575
0.102061
0.101537
0.101008
0.10047
0.0999239
0.099364
0.0987911
0.0982085
0.097616
0.0970073
0.0963819
0.0957401
0.0950842
0.0944187
0.0937536
0.0931168
0.0925762
0.0922937
0.112269
0.111982
0.111681
0.111368
0.111045
0.110713
0.110371
0.11002
0.109657
0.109282
0.108891
0.108488
0.108077
0.10766
0.107232
0.106795
0.10635
0.105896
0.105435
0.104964
0.104483
0.103991
0.103485
0.102972
0.102453
0.101924
0.101383
0.10083
0.100264
0.0996903
0.0991033
0.0985005
0.0978811
0.0972453
0.0965952
0.095935
0.0952752
0.0946442
0.0941129
0.0938529
0.113459
0.113179
0.112886
0.112581
0.112267
0.111943
0.111611
0.111268
0.110915
0.110551
0.110171
0.109777
0.109375
0.108966
0.108549
0.108122
0.107687
0.107243
0.106792
0.106331
0.105859
0.105377
0.104881
0.10438
0.103869
0.103348
0.102815
0.102269
0.101711
0.101145
0.100565
0.099969
0.0993565
0.0987274
0.0980837
0.0974295
0.0967754
0.0961503
0.0956278
0.0953888
0.114619
0.114347
0.114061
0.113765
0.113459
0.113144
0.112821
0.112487
0.112144
0.11179
0.111422
0.111037
0.110645
0.110244
0.109837
0.109421
0.108995
0.108561
0.108119
0.107667
0.107206
0.106733
0.106249
0.105757
0.105255
0.104742
0.104217
0.10368
0.10313
0.102572
0.102
0.101412
0.100808
0.100186
0.0995492
0.0989017
0.0982536
0.0976346
0.0971204
0.0969007
0.115749
0.115485
0.115207
0.114919
0.114622
0.114316
0.114001
0.113677
0.113343
0.112999
0.112642
0.112267
0.111885
0.111494
0.111097
0.11069
0.110274
0.109849
0.109417
0.108975
0.108524
0.108062
0.107588
0.107106
0.106613
0.106109
0.105592
0.105064
0.104523
0.103974
0.103411
0.102831
0.102234
0.101621
0.100992
0.100351
0.0997096
0.0990967
0.0985902
0.0983882
0.11685
0.116593
0.116324
0.116044
0.115756
0.115458
0.115152
0.114837
0.114513
0.114179
0.113832
0.113468
0.113095
0.112715
0.112328
0.111931
0.111525
0.11111
0.110685
0.110254
0.109813
0.109361
0.108898
0.108426
0.107942
0.107448
0.10694
0.106421
0.105889
0.105349
0.104795
0.104224
0.103637
0.103031
0.102411
0.101778
0.101143
0.100536
0.100037
0.0998508
0.117922
0.117673
0.117412
0.11714
0.11686
0.116571
0.116275
0.115969
0.115654
0.115329
0.114992
0.114639
0.114277
0.113907
0.11353
0.113143
0.112747
0.112341
0.111927
0.111505
0.111075
0.110633
0.11018
0.109717
0.109244
0.108759
0.108261
0.107752
0.107229
0.106699
0.106155
0.105593
0.105014
0.104418
0.103806
0.103181
0.102554
0.101953
0.10146
0.101288
0.118966
0.118724
0.11847
0.118207
0.117936
0.117656
0.117368
0.117071
0.116765
0.116451
0.116124
0.115782
0.115431
0.11507
0.114702
0.114326
0.11394
0.113545
0.11314
0.112729
0.112308
0.111877
0.111434
0.11098
0.110517
0.110042
0.109555
0.109056
0.108544
0.108024
0.107489
0.106937
0.106368
0.105781
0.105178
0.104561
0.103941
0.103347
0.10286
0.1027
0.119981
0.119746
0.119501
0.119246
0.118983
0.118711
0.118432
0.118145
0.117849
0.117544
0.117228
0.116897
0.116556
0.116205
0.115846
0.11548
0.115105
0.114721
0.114326
0.113923
0.113513
0.113093
0.11266
0.112217
0.111763
0.111299
0.110822
0.110333
0.109833
0.109323
0.108798
0.108256
0.107697
0.107119
0.106525
0.105917
0.105305
0.104718
0.104236
0.104086
0.120967
0.120741
0.120503
0.120256
0.120002
0.119739
0.119469
0.11919
0.118903
0.118608
0.118302
0.117984
0.117652
0.117312
0.116962
0.116607
0.116242
0.115868
0.115484
0.115091
0.114691
0.114281
0.113859
0.113426
0.112983
0.112529
0.112062
0.111585
0.111097
0.110597
0.110082
0.10955
0.109
0.108433
0.107849
0.10725
0.106646
0.106065
0.105588
0.105447
0.121926
0.121707
0.121477
0.121239
0.120992
0.120738
0.120477
0.120207
0.11993
0.119644
0.119349
0.119042
0.11872
0.11839
0.118051
0.117706
0.117352
0.116988
0.116614
0.116231
0.115842
0.115442
0.115031
0.114609
0.114176
0.113732
0.113277
0.112811
0.112335
0.111845
0.11134
0.110818
0.110279
0.109722
0.109148
0.108559
0.107963
0.107389
0.106916
0.106782
0.122858
0.122646
0.122424
0.122194
0.121956
0.12171
0.121457
0.121197
0.120929
0.120652
0.120367
0.120071
0.11976
0.119441
0.119112
0.118776
0.118433
0.11808
0.117717
0.117345
0.116964
0.116576
0.116176
0.115764
0.115343
0.11491
0.114466
0.114011
0.113546
0.113067
0.112573
0.112062
0.111533
0.110986
0.110422
0.109843
0.109256
0.108689
0.10822
0.10809
0.123762
0.123558
0.123343
0.123121
0.122892
0.122655
0.122411
0.122159
0.1219
0.121633
0.121358
0.121072
0.120773
0.120464
0.120145
0.119819
0.119487
0.119145
0.118792
0.118431
0.118061
0.117683
0.117294
0.116893
0.116482
0.116061
0.115628
0.115187
0.114732
0.114264
0.11378
0.113279
0.112762
0.112226
0.111672
0.111103
0.110526
0.109965
0.1095
0.109373
0.12464
0.124443
0.124236
0.124022
0.123801
0.123572
0.123337
0.123095
0.122844
0.122587
0.122321
0.122046
0.121761
0.121461
0.121152
0.120836
0.120514
0.120182
0.119841
0.119491
0.119131
0.118763
0.118385
0.117996
0.117596
0.117185
0.116764
0.116334
0.115891
0.115434
0.114961
0.114472
0.113965
0.11344
0.112898
0.112339
0.111771
0.111217
0.110756
0.11063
0.125492
0.125302
0.125103
0.124897
0.124684
0.124464
0.124237
0.124004
0.123763
0.123515