/*--------------------------------*- C++ -*----------------------------------*\
| =========                 |                                                 |
| \\      /  F ield         | OpenFOAM: The Open Source CFD Toolbox           |
|  \\    /   O peration     | Version:  3.0.1                                 |
|   \\  /    A nd           | Web:      www.OpenFOAM.org                      |
|    \\/     M anipulation  |                                                 |
\*---------------------------------------------------------------------------*/
FoamFile
{
    version     2.0;
    format      ascii;
    class       volScalarField;
    location    "450";
    object      p;
}
// * * * * * * * * * * * * * * * * * * * * * * * * * * * * * * * * * * * * * //

dimensions      [0 2 -2 0 0 0 0];

internalField   nonuniform List<scalar> 
58000
(
-0.165779
-0.453203
-0.666507
-0.785714
-0.853474
-0.901083
-0.931556
-0.949226
-0.957427
-0.956289
-0.949381
-0.938446
-0.923363
-0.90646
-0.889941
-0.874457
-0.85969
-0.846196
-0.833908
-0.822322
-0.810915
-0.800306
-0.790448
-0.780893
-0.771171
-0.761445
-0.752289
-0.743465
-0.734625
-0.725579
-0.716544
-0.707956
-0.699629
-0.691294
-0.682766
-0.673173
-0.660598
-0.647576
-0.637201
-0.628941
0.178268
0.0432539
-0.106161
-0.251288
-0.374431
-0.480281
-0.569636
-0.649089
-0.712464
-0.759557
-0.794294
-0.816579
-0.828171
-0.83282
-0.831473
-0.825633
-0.817619
-0.808488
-0.798674
-0.788627
-0.778721
-0.769075
-0.759474
-0.749965
-0.740542
-0.731547
-0.722631
-0.713727
-0.704811
-0.695919
-0.687394
-0.678933
-0.67045
-0.661864
-0.653217
-0.644464
-0.634856
-0.625189
-0.617382
-0.612389
0.11723
0.017366
-0.0852156
-0.190206
-0.28771
-0.377596
-0.458069
-0.528461
-0.590594
-0.640655
-0.68087
-0.712126
-0.733652
-0.747649
-0.756044
-0.759328
-0.75886
-0.75599
-0.751494
-0.745877
-0.739578
-0.732828
-0.72571
-0.718381
-0.710976
-0.70357
-0.69599
-0.688305
-0.680551
-0.672849
-0.665202
-0.657444
-0.64961
-0.641684
-0.63373
-0.625745
-0.6175
-0.6092
-0.601464
-0.594188
0.139893
0.0739233
0.00121728
-0.0798735
-0.163075
-0.24546
-0.322705
-0.393847
-0.458989
-0.514647
-0.562577
-0.603026
-0.634238
-0.657752
-0.675645
-0.687725
-0.694691
-0.698154
-0.699097
-0.697954
-0.695194
-0.691313
-0.686627
-0.681318
-0.67557
-0.669519
-0.663146
-0.656517
-0.649654
-0.642699
-0.635721
-0.628583
-0.621305
-0.613877
-0.606384
-0.598931
-0.591445
-0.583936
-0.57661
-0.569495
0.122237
0.0738422
0.0221239
-0.0370806
-0.100872
-0.16791
-0.234945
-0.299307
-0.361247
-0.416579
-0.466196
-0.510255
-0.546417
-0.575435
-0.599365
-0.617642
-0.630397
-0.639233
-0.645133
-0.648362
-0.649285
-0.648551
-0.646647
-0.643776
-0.640117
-0.635795
-0.630962
-0.625717
-0.620097
-0.614258
-0.608217
-0.601934
-0.595449
-0.588766
-0.581991
-0.575198
-0.568356
-0.561437
-0.554484
-0.547467
0.113276
0.0753461
0.0354237
-0.0102626
-0.0602366
-0.114253
-0.170638
-0.226684
-0.282839
-0.335023
-0.383536
-0.428341
-0.466858
-0.499244
-0.527298
-0.550143
-0.567474
-0.580777
-0.590958
-0.59811
-0.602465
-0.604752
-0.60556
-0.605091
-0.603489
-0.600903
-0.597625
-0.593776
-0.589397
-0.584634
-0.579521
-0.574091
-0.568388
-0.562423
-0.556296
-0.550089
-0.543797
-0.537381
-0.530829
-0.524149
0.10248
0.0717574
0.0399773
0.00373623
-0.0360667
-0.0796632
-0.126494
-0.174116
-0.223437
-0.270796
-0.316119
-0.359375
-0.397995
-0.431627
-0.461821
-0.487522
-0.508052
-0.52472
-0.538318
-0.548778
-0.556171
-0.561224
-0.564585
-0.566434
-0.566878
-0.566055
-0.564372
-0.561968
-0.558889
-0.555273
-0.551158
-0.546641
-0.541776
-0.536581
-0.531154
-0.525567
-0.51984
-0.513932
-0.507812
-0.501499
0.0931306
0.0673403
0.0410599
0.0113254
-0.0212119
-0.0569554
-0.0959968
-0.136229
-0.178918
-0.220968
-0.262145
-0.302511
-0.339708
-0.373024
-0.403783
-0.430884
-0.453362
-0.472319
-0.488422
-0.501464
-0.511355
-0.518775
-0.524387
-0.528333
-0.530676
-0.531525
-0.531375
-0.530371
-0.528564
-0.526079
-0.522957
-0.519351
-0.515323
-0.510894
-0.506157
-0.501184
-0.496014
-0.490611
-0.484939
-0.479045
0.0847105
0.0625717
0.0402752
0.0152327
-0.0120098
-0.0418766
-0.0747887
-0.108923
-0.145741
-0.182703
-0.21953
-0.256407
-0.291283
-0.323242
-0.353427
-0.380782
-0.404153
-0.424434
-0.442169
-0.457057
-0.468869
-0.478196
-0.485687
-0.491435
-0.495463
-0.497835
-0.499103
-0.499413
-0.498812
-0.497417
-0.495261
-0.492547
-0.48934
-0.485665
-0.481612
-0.477248
-0.47263
-0.467733
-0.462518
-0.457058
0.0772608
0.0578999
0.0385847
0.0170389
-0.00625142
-0.0316787
-0.0598052
-0.0890357
-0.120898
-0.153317
-0.186023
-0.219311
-0.251466
-0.281485
-0.310361
-0.337146
-0.36059
-0.381405
-0.400025
-0.416091
-0.429261
-0.440024
-0.448992
-0.456206
-0.461661
-0.465357
-0.467885
-0.46938
-0.469881
-0.469497
-0.468248
-0.466379
-0.463955
-0.461002
-0.457608
-0.453834
-0.449754
-0.445351
-0.440589
-0.435565
0.0706608
0.0534856
0.0364778
0.0176208
-0.00264177
-0.0246553
-0.0490252
-0.0743361
-0.102097
-0.130603
-0.159616
-0.189504
-0.21886
-0.246679
-0.273839
-0.299523
-0.322462
-0.343216
-0.362124
-0.378801
-0.392824
-0.404584
-0.41464
-0.422984
-0.429589
-0.434391
-0.437994
-0.44052
-0.441996
-0.442523
-0.442105
-0.441016
-0.439319
-0.437042
-0.434268
-0.431055
-0.427489
-0.423563
-0.41924
-0.414644
0.0648078
0.0493952
0.0342213
0.017488
-0.000395403
-0.0197287
-0.041113
-0.0632806
-0.087671
-0.112866
-0.138659
-0.165463
-0.192136
-0.217718
-0.242991
-0.267271
-0.289326
-0.309594
-0.328341
-0.345179
-0.359636
-0.372007
-0.382799
-0.391961
-0.399446
-0.405131
-0.409617
-0.413008
-0.415321
-0.416645
-0.416969
-0.416581
-0.415546
-0.413887
-0.411686
-0.408995
-0.405912
-0.402435
-0.39853
-0.394346
0.0596042
0.045644
0.031962
0.0169453
0.000973145
-0.0162139
-0.0351899
-0.0548134
-0.0764293
-0.0988379
-0.121864
-0.145939
-0.170141
-0.193575
-0.216938
-0.239676
-0.260623
-0.280128
-0.298401
-0.315063
-0.329619
-0.342282
-0.353508
-0.36321
-0.371328
-0.377687
-0.382868
-0.38696
-0.389967
-0.39197
-0.392936
-0.393165
-0.392716
-0.391612
-0.389931
-0.38772
-0.385082
-0.382023
-0.378509
-0.374714
0.0549643
0.0422227
0.0297784
0.0161776
0.00177139
-0.0136653
-0.030669
-0.048207
-0.0675222
-0.0875865
-0.108248
-0.129939
-0.151912
-0.173346
-0.194872
-0.216042
-0.235778
-0.254357
-0.271944
-0.28819
-0.302592
-0.315297
-0.326709
-0.336713
-0.345246
-0.352088
-0.357794
-0.362433
-0.365997
-0.36856
-0.370068
-0.370827
-0.370888
-0.370273
-0.369055
-0.367275
-0.365042
-0.362365
-0.359212
-0.355778
0.0508146
0.0391118
0.0277118
0.015299
0.00219819
-0.0117864
-0.0271505
-0.0429569
-0.0603466
-0.0784285
-0.0970698
-0.11669
-0.136677
-0.156289
-0.176095
-0.19574
-0.214237
-0.231808
-0.248588
-0.264255
-0.27832
-0.290874
-0.302277
-0.312392
-0.321154
-0.328312
-0.334389
-0.339435
-0.34343
-0.34644
-0.348395
-0.349597
-0.350093
-0.3499
-0.349088
-0.347691
-0.345819
-0.343485
-0.340661
-0.337559
0.0470923
0.0362867
0.0257809
0.01438
0.00238407
-0.0103777
-0.02436
-0.0387108
-0.0544733
-0.0708674
-0.0877771
-0.1056
-0.123831
-0.1418
-0.160027
-0.178225
-0.195501
-0.212039
-0.227949
-0.242938
-0.25654
-0.268805
-0.280049
-0.290123
-0.298964
-0.306299
-0.312613
-0.317941
-0.322253
-0.325607
-0.32792
-0.329484
-0.330342
-0.330507
-0.330043
-0.328979
-0.327426
-0.325398
-0.32287
-0.320068
0.0437432
0.033721
0.0239906
0.0134632
0.00241537
-0.00930243
-0.0221055
-0.0352182
-0.0495919
-0.0645383
-0.0799548
-0.0962137
-0.112894
-0.129394
-0.146182
-0.163033
-0.179138
-0.194654
-0.209672
-0.22393
-0.236989
-0.248867
-0.259843
-0.269761
-0.278563
-0.285959
-0.292397
-0.297899
-0.302428
-0.306034
-0.308623
-0.310476
-0.311627
-0.312088
-0.311918
-0.311141
-0.309865
-0.308106
-0.30584
-0.303308
0.0407209
0.0313897
0.0223392
0.0125747
0.00235015
-0.00846563
-0.0202507
-0.0322983
-0.0454753
-0.0591699
-0.0732905
-0.0881831
-0.103494
-0.118681
-0.134168
-0.149776
-0.164777
-0.179306
-0.193441
-0.206948
-0.219416
-0.230844
-0.241475
-0.251152
-0.259821
-0.267184
-0.273653
-0.279241
-0.283901
-0.287679
-0.290471
-0.292544
-0.293927
-0.294628
-0.294702
-0.294166
-0.293127
-0.291601
-0.289566
-0.287275
0.0379864
0.0292699
0.0208212
0.0117295
0.00222743
-0.00780026
-0.0186974
-0.0298194
-0.0419555
-0.0545592
-0.0675481
-0.0812412
-0.0953388
-0.109353
-0.123665
-0.138134
-0.152106
-0.165697
-0.178975
-0.191733
-0.203591
-0.214528
-0.224762
-0.234137
-0.242603
-0.24986
-0.256287
-0.261885
-0.266605
-0.270486
-0.273417
-0.275651
-0.27721
-0.2781
-0.278372
-0.278037
-0.277199
-0.275873
-0.274039
-0.271958
0.0355064
0.0273409
0.0194293
0.0109359
0.00207405
-0.00725836
-0.0173737
-0.0276839
-0.038907
-0.0505525
-0.0625462
-0.075181
-0.0882
-0.101163
-0.114415
-0.127845
-0.140864
-0.153574
-0.166032
-0.178058
-0.1893
-0.199728
-0.209534
-0.218566
-0.226777
-0.233873
-0.240198
-0.245748
-0.250468
-0.254393
-0.257409
-0.259752
-0.261439
-0.262474
-0.262901
-0.26273
-0.262058
-0.260901
-0.259241
-0.257344
0.0332517
0.0255838
0.0181553
0.0101982
0.00190817
-0.00680543
-0.0162267
-0.025819
-0.0362348
-0.0470328
-0.0581457
-0.0698414
-0.0818979
-0.0939183
-0.106214
-0.118695
-0.130834
-0.142721
-0.154405
-0.165725
-0.17636
-0.186273
-0.195634
-0.204295
-0.212215
-0.219109
-0.225288
-0.230743
-0.235415
-0.239336
-0.242391
-0.244798
-0.246571
-0.24771
-0.248256
-0.248216
-0.247681
-0.246665
-0.245153
-0.243415
0.0311973
0.0239816
0.0169906
0.00951781
0.00174192
-0.00641723
-0.0152176
-0.0241698
-0.0338668
-0.04391
-0.0542384
-0.0650963
-0.0762905
-0.0874624
-0.0988928
-0.11051
-0.121839
-0.132959
-0.143914
-0.15456
-0.164606
-0.174007
-0.182917
-0.191193
-0.1988
-0.205461
-0.211461
-0.216783
-0.22137
-0.225248
-0.228303
-0.230737
-0.23256
-0.233769
-0.234404
-0.234464
-0.234038
-0.233139
-0.231752
-0.230151
0.0293214
0.0225188
0.0159266
0.0088935
0.001583
-0.00607577
-0.0143171
-0.0226947
-0.0317474
-0.0411141
-0.0507394
-0.0608456
-0.0712635
-0.0816689
-0.0923154
-0.103144
-0.113728
-0.124136
-0.134407
-0.144416
-0.153893
-0.162795
-0.171256
-0.179142
-0.186421
-0.19283
-0.198625
-0.203787
-0.208259
-0.212065
-0.215088
-0.217518
-0.21936
-0.220611
-0.221305
-0.221441
-0.221099
-0.220295
-0.219012
-0.217527
0.0276052
0.0211817
0.0149546
0.00832337
0.00143687
-0.00576777
-0.0135027
-0.021361
-0.0298323
-0.0385894
-0.0475811
-0.0570096
-0.0667257
-0.0764361
-0.0863701
-0.0964789
-0.106376
-0.116125
-0.125758
-0.135164
-0.144099
-0.152517
-0.160538
-0.168035
-0.174981
-0.181124
-0.186698
-0.19168
-0.196014
-0.199722
-0.202689
-0.205089
-0.206925
-0.208192
-0.208922
-0.209111
-0.208834
-0.208104
-0.206909
-0.205522
0.0260322
0.0199583
0.0140673
0.00780489
0.00130676
-0.00548316
-0.012757
-0.0201434
-0.0280872
-0.0362916
-0.0447096
-0.0535245
-0.0626039
-0.0716822
-0.0809666
-0.0904162
-0.0996816
-0.108819
-0.117857
-0.126696
-0.135116
-0.143069
-0.150662
-0.157777
-0.164387
-0.170258
-0.1756
-0.180388
-0.184569
-0.188159
-0.19105
-0.193399
-0.195209
-0.196472
-0.197218
-0.19744
-0.19721
-0.196538
-0.195414
-0.194109
0.0245882
0.0188378
0.0132574
0.00733522
0.00119425
-0.00521515
-0.0120671
-0.0190225
-0.0264856
-0.0341867
-0.0420827
-0.0503395
-0.0588389
-0.0673403
-0.0760307
-0.0848754
-0.0935582
-0.102129
-0.110612
-0.11892
-0.126851
-0.134359
-0.14154
-0.148281
-0.154561
-0.160157
-0.165261
-0.169846
-0.173861
-0.17732
-0.180119
-0.182402
-0.184168
-0.185411
-0.186155
-0.186395
-0.186196
-0.185568
-0.184502
-0.183264
0.0232604
0.0178104
0.0125184
0.00691103
0.00109987
-0.00495894
-0.011423
-0.017983
-0.025006
-0.0322468
-0.0396658
-0.047413
-0.0553823
-0.0633551
-0.0715004
-0.0797887
-0.0879334
-0.0959786
-0.103946
-0.111756
-0.119225
-0.126309
-0.133093
-0.139473
-0.145428
-0.150752
-0.155615
-0.159993
-0.163834
-0.167152
-0.169847
-0.172051
-0.17376
-0.174968
-0.175698
-0.175943
-0.175762
-0.175166
-0.174144
-0.172963
0.0220375
0.0168676
0.0118442
0.00652904
0.00102365
-0.00471097
-0.010817
-0.0170126
-0.0236312
-0.0304493
-0.0374305
-0.0447105
-0.0521934
-0.0596806
-0.0673245
-0.0750998
-0.0827467
-0.0903043
-0.0977905
-0.105134
-0.112168
-0.11885
-0.125255
-0.131286
-0.136926
-0.14198
-0.146604
-0.150772
-0.154435
-0.157606
-0.160188
-0.162303
-0.163945
-0.165108
-0.165812
-0.16605
-0.165877
-0.165302
-0.164316
-0.163179
0.0209096
0.0160015
0.0112289
0.00618605
0.000965027
-0.00446847
-0.0102429
-0.0161016
-0.022347
-0.0287755
-0.0353534
-0.0422032
-0.0492385
-0.0562785
-0.0634603
-0.0707616
-0.0779469
-0.0850508
-0.0920887
-0.0989957
-0.10562
-0.11192
-0.117964
-0.123661
-0.128995
-0.133786
-0.138174
-0.142133
-0.145616
-0.148636
-0.1511
-0.153118
-0.154686
-0.155794
-0.156464
-0.156686
-0.156512
-0.155949
-0.154991
-0.15389
0.019868
0.0152051
0.0106673
0.00587886
0.000923152
-0.00422984
-0.00969614
-0.0152421
-0.021142
-0.0272099
-0.0334152
-0.0398681
-0.0464899
-0.0531165
-0.0598714
-0.0667341
-0.0734905
-0.0801719
-0.0867913
-0.0932896
-0.0995279
-0.105468
-0.111168
-0.116546
-0.121585
-0.126121
-0.130277
-0.134029
-0.137334
-0.1402
-0.142542
-0.144459
-0.145946
-0.146995
-0.147623
-0.147822
-0.147639
-0.147082
-0.146144
-0.145071
0.0189045
0.0144718
0.0101545
0.00560441
0.000897092
-0.00399373
-0.00917299
-0.0144279
-0.0200068
-0.0257401
-0.0315999
-0.0376853
-0.0439244
-0.0501678
-0.0565266
-0.0629823
-0.0693403
-0.0756282
-0.0818569
-0.0879724
-0.0938478
-0.0994462
-0.104821
-0.109894
-0.114652
-0.118939
-0.12287
-0.12642
-0.129548
-0.13226
-0.134478
-0.136291
-0.137694
-0.138678
-0.139259
-0.13943
-0.139233
-0.138675
-0.137751
-0.136699
0.0180123
0.0137961
0.00968619
0.00535997
0.000885838
-0.00375947
-0.0086706
-0.0136537
-0.0189336
-0.0243558
-0.0298943
-0.0356383
-0.0415222
-0.0474097
-0.0534005
-0.0594778
-0.0654647
-0.0713857
-0.0772491
-0.0830058
-0.0885396
-0.0938162
-0.0988819
-0.103665
-0.108152
-0.112201
-0.115914
-0.119267
-0.12222
-0.124781
-0.126874
-0.128582
-0.129898
-0.130814
-0.131345
-0.131483
-0.131267
-0.130704
-0.129789
-0.128753
0.0171848
0.0131729
0.00925856
0.00514307
0.000888205
-0.00352665
-0.0081868
-0.0129155
-0.0179161
-0.023048
-0.028287
-0.0337132
-0.0392664
-0.0448224
-0.0504709
-0.0561958
-0.0618366
-0.0674146
-0.0729364
-0.0783566
-0.0835695
-0.0885418
-0.0933152
-0.0978226
-0.102052
-0.105872
-0.109374
-0.112535
-0.115319
-0.117731
-0.1197
-0.121302
-0.12253
-0.123376
-0.123854
-0.123956
-0.123718
-0.123146
-0.122236
-0.121211
0.0164166
0.0125975
0.00886804
0.00495129
0.000902882
-0.00329524
-0.00771971
-0.0122096
-0.0169491
-0.0218095
-0.0267686
-0.0318982
-0.0371429
-0.0423896
-0.0477186
-0.0531149
-0.0584324
-0.0636896
-0.0688916
-0.0739963
-0.0789068
-0.0835924
-0.0880891
-0.0923349
-0.0963189
-0.099919
-0.103218
-0.106195
-0.108813
-0.111079
-0.112927
-0.114423
-0.115564
-0.116339
-0.116762
-0.116826
-0.116563
-0.11598
-0.115071
-0.114053
0.0157026
0.0120658
0.00851134
0.00478228
0.000928644
-0.00306511
-0.0072678
-0.0115332
-0.0160277
-0.0206338
-0.0253308
-0.030183
-0.0351394
-0.0400968
-0.0451271
-0.0502164
-0.0552318
-0.0601888
-0.0650908
-0.0698994
-0.0745258
-0.0789404
-0.0831754
-0.0871732
-0.0909235
-0.0943137
-0.0974186
-0.100217
-0.102675
-0.104799
-0.106528
-0.107921
-0.108974
-0.109679
-0.110047
-0.110072
-0.109782
-0.109185
-0.108275
-0.10726
0.0150381
0.0115741
0.00818544
0.00463384
0.000964404
-0.00283625
-0.00682999
-0.010884
-0.0151482
-0.0195155
-0.0239666
-0.0285588
-0.0332452
-0.0379315
-0.0426824
-0.0474849
-0.0522171
-0.0568926
-0.0615136
-0.066044
-0.0704025
-0.0745616
-0.0785493
-0.0823121
-0.0858403
-0.0890302
-0.0919486
-0.094576
-0.0968807
-0.0988674
-0.10048
-0.101772
-0.10274
-0.103374
-0.103687
-0.103671
-0.103354
-0.102741
-0.101828
-0.100815
0.0144192
0.011119
0.0078876
0.00450413
0.00100918
-0.00260885
-0.0064055
-0.0102599
-0.0143075
-0.0184501
-0.0226699
-0.0270181
-0.031451
-0.0358832
-0.0403727
-0.0449063
-0.049373
-0.0537845
-0.0581412
-0.06241
-0.0665166
-0.0704345
-0.0741883
-0.0777287
-0.0810461
-0.084045
-0.0867859
-0.089249
-0.0914063
-0.0932607
-0.09476
-0.0959544
-0.0968383
-0.097404
-0.0976617
-0.0976055
-0.0972602
-0.0966311
-0.0957145
-0.0947005
0.0138421
0.0106975
0.00761545
0.00439147
0.00106193
-0.00238319
-0.00599351
-0.00965929
-0.0135025
-0.0174334
-0.0214354
-0.025554
-0.0297492
-0.0339429
-0.0381868
-0.0424685
-0.046686
-0.050849
-0.0549577
-0.0589807
-0.0628495
-0.0665399
-0.0700729
-0.0734026
-0.07652
-0.0793374
-0.0819084
-0.0842155
-0.0862309
-0.0879581
-0.089349
-0.0904484
-0.0912506
-0.0917495
-0.0919533
-0.0918574
-0.0914838
-0.0908382
-0.0899166
-0.0889005
0.0133035
0.0103067
0.00736683
0.00429421
0.00112163
-0.00215944
-0.0055934
-0.00908055
-0.0127306
-0.0164619
-0.0202584
-0.0241612
-0.0281328
-0.0321023
-0.0361159
-0.0401606
-0.0441439
-0.0480737
-0.0519486
-0.05574
-0.0593853
-0.0628607
-0.066185
-0.0693155
-0.0722433
-0.074888
-0.0772979
-0.0794552
-0.0813357
-0.0829414
-0.0842275
-0.0852351
-0.0859592
-0.0863928
-0.0865447
-0.0864096
-0.0860086
-0.0853462
-0.0844194
-0.0834003
0.0128004
0.00994435
0.00713973
0.00421094
0.00118746
-0.00193785
-0.00520465
-0.00852241
-0.01199
-0.0155325
-0.0191355
-0.0228347
-0.0265962
-0.0303549
-0.0341512
-0.0379733
-0.0417362
-0.045446
-0.0491014
-0.0526749
-0.0561089
-0.0593817
-0.0625087
-0.0654508
-0.0681991
-0.0706799
-0.072936
-0.0749518
-0.076703
-0.0781923
-0.0793785
-0.0802984
-0.0809465
-0.0813182
-0.0814193
-0.0812468
-0.0808189
-0.0801407
-0.0792085
-0.0781862
0.01233
0.00960796
0.00693232
0.00414038
0.00125867
-0.00171867
-0.00482694
-0.00798409
-0.0112789
-0.0146431
-0.018063
-0.0215707
-0.0251341
-0.0286936
-0.0322858
-0.0358981
-0.0394533
-0.0429564
-0.0464046
-0.0497726
-0.0530078
-0.0560889
-0.0590296
-0.0617935
-0.0643719
-0.0666972
-0.0688078
-0.070688
-0.072317
-0.0736955
-0.074786
-0.0756217
-0.0761983
-0.0765095
-0.0765627
-0.0763543
-0.0759008
-0.0752075
-0.0742706
-0.0732451
0.0118898
0.00929545
0.00674286
0.00408126
0.0013345
-0.00150218
-0.00446008
-0.00746481
-0.010596
-0.0137913
-0.0170384
-0.020365
-0.0237414
-0.0271133
-0.0305125
-0.0339274
-0.0372869
-0.0405947
-0.043848
-0.0470226
-0.0500696
-0.0529699
-0.0557346
-0.05833
-0.0607478
-0.0629257
-0.0648979
-0.0666506
-0.0681626
-0.0694357
-0.0704354
-0.0711914
-0.0716987
-0.0719534
-0.0719609
-0.0717181
-0.071241
-0.0705336
-0.0695931
-0.0685651
0.0114774
0.00900484
0.0065697
0.00403231
0.0014141
-0.0012887
-0.00410384
-0.00696382
-0.00993991
-0.0129755
-0.0160587
-0.0192142
-0.022414
-0.0256084
-0.0288258
-0.0320544
-0.0352292
-0.0383531
-0.0414222
-0.0444142
-0.0472842
-0.0500135
-0.052612
-0.0550482
-0.057314
-0.0593524
-0.061194
-0.0628246
-0.0642265
-0.0653998
-0.066313
-0.0669929
-0.0674357
-0.0676361
-0.0676005
-0.067326
-0.0668269
-0.066107
-0.0651639
-0.0641347
0.0110907
0.00873437
0.00641136
0.00399241
0.00149672
-0.00107859
-0.00375805
-0.00648034
-0.00930955
-0.0121936
-0.0151217
-0.0181152
-0.021148
-0.0241748
-0.0272202
-0.030273
-0.0332736
-0.0362235
-0.0391191
-0.041939
-0.0446414
-0.0472095
-0.0496509
-0.0519367
-0.0540589
-0.0559653
-0.0576827
-0.059199
-0.0604959
-0.0615746
-0.0624062
-0.0630146
-0.0633955
-0.0635456
-0.0634696
-0.0631657
-0.0626464
-0.0619162
-0.060972
-0.0599432
0.0107278
0.00848236
0.00626651
0.00396055
0.0015817
-0.000872125
-0.00342244
-0.00601399
-0.00870357
-0.0114441
-0.014225
-0.017065
-0.0199399
-0.0228079
-0.0256909
-0.0285776
-0.0314135
-0.0341995
-0.036931
-0.0395882
-0.042133
-0.0445485
-0.0468416
-0.0489854
-0.0509719
-0.0527533
-0.0543539
-0.055761
-0.0569595
-0.057949
-0.0587032
-0.0592439
-0.0595676
-0.0596699
-0.0595567
-0.0592257
-0.0586888
-0.05795
-0.0570065
-0.0559799
0.010387
0.00824737
0.0061339
0.00393578
0.00166843
-0.000669484
-0.00309709
-0.00556396
-0.00812113
-0.0107252
-0.0133665
-0.0160611
-0.0187863
-0.0215042
-0.0242334
-0.0269633
-0.0296436
-0.0322744
-0.0348512
-0.037355
-0.0397504
-0.042022
-0.0441751
-0.0461847
-0.048043
-0.0497065
-0.0511962
-0.0525013
-0.0536062
-0.0545115
-0.0551932
-0.0556706
-0.0559399
-0.0559986
-0.0558508
-0.0554954
-0.0549432
-0.0541979
-0.0532574
-0.0522352
0.0100666
0.00802802
0.00601244
0.00391727
0.00175637
-0.000471073
-0.00278165
-0.00512995
-0.00756116
-0.0100357
-0.0125444
-0.0151011
-0.0176846
-0.0202601
-0.022844
-0.0254253
-0.0279585
-0.0304428
-0.0328732
-0.035232
-0.0374866
-0.0396222
-0.0416431
-0.043526
-0.0452634
-0.0468155
-0.0482009
-0.0494088
-0.0504263
-0.0512526
-0.0518658
-0.0522835
-0.0525032
-0.0525207
-0.0523416
-0.0519645
-0.0513993
-0.0506502
-0.0497144
-0.0486992
0.00976508
0.00782308
0.0059011
0.00390426
0.00184499
-0.000276917
-0.00247616
-0.00471136
-0.00702278
-0.00937418
-0.0117569
-0.0141827
-0.016632
-0.0190726
-0.0215185
-0.0239596
-0.0263535
-0.0286991
-0.0309914
-0.0332134
-0.0353346
-0.0373419
-0.0392379
-0.0410013
-0.0426247
-0.0440716
-0.0453584
-0.0464758
-0.0474103
-0.0481622
-0.0487116
-0.049074
-0.0492464
-0.049227
-0.0490193
-0.0486231
-0.0480477
-0.0472965
-0.0463682
-0.0453624
0.00948117
0.00763141
0.00579896
0.00389606
0.00193395
-8.73607e-05
-0.00218036
-0.00430778
-0.0065052
-0.00873951
-0.0110025
-0.0133041
-0.015626
-0.0179385
-0.0202541
-0.0225622
-0.0248244
-0.027039
-0.0292004
-0.031293
-0.0332887
-0.0351744
-0.0369526
-0.0386033
-0.0401191
-0.0414668
-0.0426611
-0.0436923
-0.0445497
-0.045232
-0.0457214
-0.0460319
-0.0461617
-0.0461076
-0.0458746
-0.045462
-0.0448784
-0.0441283
-0.043209
-0.0422153
0.00921362
0.00745199
0.00570517
0.00389212
0.00202269
9.76055e-05
-0.00189422
-0.0039188
-0.00600769
-0.0081306
-0.0102797
-0.0124634
-0.0146644
-0.0168556
-0.0190473
-0.0212297
-0.0233672
-0.0254575
-0.0274955
-0.0294659
-0.0313426
-0.0331138
-0.0347808
-0.036325
-0.0377394
-0.0389937
-0.0401005
-0.0410518
-0.0418359
-0.0424531
-0.0428868
-0.0431496
-0.043239
-0.0431543
-0.0428985
-0.042472
-0.0418832
-0.0411354
-0.0402281
-0.0392485
0.00896126
0.00728385
0.005619
0.00389172
0.00211101
0.000277696
-0.00161756
-0.00354402
-0.00552956
-0.00754644
-0.00958719
-0.0116589
-0.0137451
-0.015821
-0.0178956
-0.0199587
-0.021978
-0.0239511
-0.025872
-0.0277268
-0.0294914
-0.0311543
-0.0327163
-0.0341601
-0.035479
-0.0366453
-0.0376702
-0.0385454
-0.0392617
-0.0398181
-0.0401995
-0.0404177
-0.0404713
-0.0403579
-0.0400824
-0.0396446
-0.0390522
-0.0383099
-0.0374155
-0.0364527
0.00872305
0.00712614
0.00553969
0.00389447
0.00219844
0.000452884
-0.00135025
-0.00318308
-0.00507016
-0.0069861
-0.00892378
-0.0108889
-0.0128662
-0.0148329
-0.016796
-0.0187463
-0.0206538
-0.0225155
-0.024326
-0.0260715
-0.0277299
-0.0292906
-0.0307535
-0.0321027
-0.0333317
-0.0344152
-0.0353627
-0.0361675
-0.0368196
-0.037319
-0.0376523
-0.0378296
-0.0378493
-0.0377111
-0.037418
-0.0369711
-0.0363778
-0.0356417
-0.0347631
-0.0338185
0.00849801
0.00697802
0.00546661
0.00389981
0.0022848
0.000623064
-0.00109216
-0.00283563
-0.0046289
-0.00644871
-0.00828826
-0.0101522
-0.012026
-0.0138886
-0.0157463
-0.0175896
-0.019391
-0.0211476
-0.0228532
-0.0244954
-0.0260539
-0.0275179
-0.0288873
-0.0301473
-0.0312916
-0.0322971
-0.0331724
-0.0339103
-0.034503
-0.0349494
-0.0352375
-0.0353769
-0.0353667
-0.0352054
-0.0348974
-0.0344436
-0.0338507
-0.0331236
-0.032261
-0.0313368
0.00828525
0.00683878
0.00539921
0.00390737
0.00236977
0.000788161
-0.000843179
-0.00250135
-0.0042052
-0.00593344
-0.00767957
-0.00944716
-0.0112226
-0.0129867
-0.0147441
-0.016486
-0.018187
-0.0198437
-0.0214504
-0.022995
-0.0244586
-0.0258315
-0.0271128
-0.0282888
-0.0293533
-0.0302855
-0.0310926
-0.0317686
-0.0323051
-0.032702
-0.0329487
-0.0330535
-0.0330151
-0.032834
-0.032513
-0.032054
-0.0314637
-0.0307458
-0.0299015
-0.0289982
0.00808394
0.00670779
0.00533687
0.00391673
0.00245317
0.000948105
-0.000603169
-0.0021799
-0.00379853
-0.00543953
-0.00709667
-0.00877265
-0.0104547
-0.0121249
-0.0137873
-0.0154331
-0.0170388
-0.0186011
-0.020114
-0.0215663
-0.0229405
-0.0242273
-0.0254254
-0.0265222
-0.0275118
-0.028375
-0.0291183
-0.0297355
-0.0302202
-0.0305712
-0.0307791
-0.0308517
-0.0307887
-0.0305892
-0.0302574
-0.029795
-0.029208
-0.0285016
-0.0276751
-0.0267938
0.00789335
0.00658432
0.00527917
0.00392756
0.00253472
0.00110286
-0.000371991
-0.00187097
-0.00340837
-0.00496622
-0.0065386
-0.00812742
-0.00972064
-0.0113019
-0.0128739
-0.0144286
-0.0159441
-0.0174167
-0.018841
-0.0202061
-0.0214956
-0.0227011
-0.0238209
-0.0248431
-0.025762
-0.0265605
-0.0272436
-0.0278066
-0.0282422
-0.0285504
-0.0287228
-0.0287661
-0.0286798
-0.0284647
-0.0281237
-0.027659
-0.027077
-0.0263816
-0.0255745
-0.0247149
0.0077127
0.00646787
0.00522558
0.00393946
0.00261434
0.00125238
-0.000149511
-0.00157426
-0.00303419
-0.00451283
-0.00600447
-0.00751038
-0.00901922
-0.0105157
-0.0120022
-0.0134703
-0.0149002
-0.0162881
-0.0176284
-0.0189109
-0.0201208
-0.0212493
-0.0222951
-0.023247
-0.0240996
-0.0248371
-0.0254642
-0.0259756
-0.026366
-0.0266345
-0.0267737
-0.0267899
-0.0266833
-0.0264536
-0.026105
-0.0256393
-0.0250624
-0.0243796
-0.0235907
-0.0227531
0.00754136
0.00635782
0.00517571
0.00395227
0.00269177
0.00139667
6.44097e-05
-0.00128945
-0.00267554
-0.00407869
-0.00549344
-0.00692046
-0.00834901
-0.00976516
-0.0111702
-0.0125563
-0.013905
-0.0152125
-0.0164735
-0.017678
-0.0188122
-0.0198684
-0.0208444
-0.0217301
-0.0225202
-0.0232005
-0.0237747
-0.0242386
-0.0245863
-0.0248178
-0.0249265
-0.024918
-0.0247922
-0.0245502
-0.0241949
-0.023729
-0.0231585
-0.0224872
-0.0217173
-0.0209004
0.0073787
0.00625376
0.00512917
0.00396557
0.00276696
0.00153569
0.000269899
-0.00101629
-0.00233197
-0.00366318
-0.00500469
-0.00635664
-0.00770892
-0.00904852
-0.0103764
-0.0116846
-0.0129564
-0.0141879
-0.0153735
-0.0165043
-0.0175673
-0.0185549
-0.0194651
-0.0202885
-0.0210199
-0.0216464
-0.0221713
-0.02259
-0.0228984
-0.0230956
-0.0231758
-0.0231443
-0.0230017
-0.0227481
-0.0223875
-0.0219222
-0.0213576
-0.0206988
-0.0199462
-0.0191494
0.0072242
0.00615514
0.0050856
0.00397926
0.00283968
0.00166944
0.000467098
-0.000754482
-0.00200303
-0.0032657
-0.00453745
-0.00581796
-0.00709769
-0.00836469
-0.009619
-0.0108535
-0.0120524
-0.0132116
-0.0143263
-0.0153874
-0.0163828
-0.0173059
-0.018154
-0.0189186
-0.0195949
-0.0201708
-0.0206492
-0.0210264
-0.0212975
-0.0214627
-0.0215168
-0.0214644
-0.0213058
-0.0210424
-0.0206771
-0.0202127
-0.0196547
-0.019007
-0.0182718
-0.0174934
0.00707722
0.00606161
0.00504465
0.00399296
0.00290991
0.00179793
0.000656135
-0.000503772
-0.00168831
-0.00288566
-0.00409096
-0.00530351
-0.00651431
-0.0077121
-0.00889684
-0.0100612
-0.011191
-0.012282
-0.0133292
-0.0143244
-0.0152563
-0.0161182
-0.0169079
-0.0176172
-0.0182415
-0.01877
-0.019205
-0.0195427
-0.0197796
-0.0199151
-0.0199446
-0.0198727
-0.0197003
-0.0194275
-0.0190584
-0.0185953
-0.0180432
-0.017407
-0.0166873
-0.0159261
0.00693736
0.00597268
0.005006
0.00400661
0.00297745
0.00192116
0.000837151
-0.000263895
-0.00138742
-0.00252251
-0.00366452
-0.0048124
-0.00595761
-0.00708982
-0.00820826
-0.00930629
-0.0103705
-0.0113968
-0.0123804
-0.0133132
-0.0141848
-0.0149892
-0.0157238
-0.016381
-0.0169565
-0.0174404
-0.0178345
-0.0181358
-0.0183402
-0.018448
-0.0184552
-0.0183655
-0.0181796
-0.017899
-0.0175264
-0.0170647
-0.0165189
-0.0158926
-0.015188
-0.0144421
0.00680403
0.00588802
0.0049694
0.00401989
0.00304231
0.00203915
0.00101027
-3.45998e-05
-0.00109996
-0.00217575
-0.00325748
-0.00434381
-0.00542669
-0.00649643
-0.00755216
-0.00858718
-0.00958925
-0.0105544
-0.0114775
-0.0123514
-0.0131663
-0.0139163
-0.0145989
-0.0152071
-0.0157367
-0.0161786
-0.0165346
-0.0168013
-0.016976
-0.0170581
-0.0170441
-0.0169379
-0.0167403
-0.016452
-0.0160766
-0.0156165
-0.0150761
-0.0144599
-0.0137684
-0.0130367
0.00667687
0.00580727
0.00493455
0.00403274
0.00310432
0.00215194
0.00117565
0.000184362
-0.000825575
-0.00184487
-0.00286919
-0.00389695
-0.00492056
-0.00593109
-0.00692709
-0.00790245
-0.00884564
-0.00975262
-0.0106188
-0.011437
-0.0121982
-0.0128969
-0.0135306
-0.0140926
-0.014579
-0.0149817
-0.0153017
-0.0155366
-0.015683
-0.0157411
-0.0157078
-0.0155865
-0.0153776
-0.0150829
-0.0147049
-0.0142463
-0.0137114
-0.0131038
-0.012425
-0.0117056
0.00655541
0.0057301
0.00490124
0.00404489
0.0031635
0.00225953
0.0013334
0.000393234
-0.00056389
-0.00152937
-0.00249903
-0.00347109
-0.0044384
-0.00539252
-0.00633204
-0.00725071
-0.00813806
-0.00899019
-0.00980229
-0.0105678
-0.0112785
-0.0119288
-0.0125163
-0.0130349
-0.0134808
-0.0138465
-0.0141331
-0.0143377
-0.0144582
-0.014494
-0.0144426
-0.014307
-0.0140884
-0.0137874
-0.0134073
-0.0129503
-0.0124203
-0.0118214
-0.0111535
-0.0104456
0.00643929
0.0056562
0.00486919
0.00405631
0.0032197
0.00236198
0.00148368
0.000592255
-0.000314556
-0.0012288
-0.00214643
-0.00306552
-0.00397929
-0.00487998
-0.00576567
-0.0066307
-0.00746519
-0.00826518
-0.00902634
-0.00974219
-0.0104049
-0.0110096
-0.0115537
-0.0120314
-0.0124392
-0.0127703
-0.0130253
-0.0132022
-0.0132981
-0.0133132
-0.0132452
-0.0130968
-0.0128686
-0.0125624
-0.0121803
-0.0117249
-0.0111999
-0.0106084
-0.00995142
-0.00925361
0.00632809
0.00558528
0.00483822
0.00406675
0.00327296
0.00245931
0.0016266
0.000781652
-7.72372e-05
-0.000942695
-0.00181083
-0.00267956
-0.00354249
-0.00439229
-0.00522711
-0.0060412
-0.00682556
-0.00757639
-0.00828916
-0.00895804
-0.00957576
-0.0101374
-0.0106405
-0.0110798
-0.0114519
-0.0117504
-0.0119762
-0.0121266
-0.0122001
-0.012196
-0.0121124
-0.011952
-0.0117158
-0.0114044
-0.0110208
-0.0105671
-0.0100466
-0.00946278
-0.00881526
-0.00812725
0.0062215
0.00551704
0.00480809
0.00407618
0.00332315
0.00255157
0.00176231
0.000961652
0.000148391
-0.000670636
-0.00149167
-0.00231253
-0.00312716
-0.00392878
-0.00471514
-0.00548106
-0.00621798
-0.0069221
-0.00758936
-0.00821392
-0.00878893
-0.00931012
-0.00977473
-0.0101779
-0.0105164
-0.0107846
-0.0109827
-0.011109
-0.0111611
-0.0111392
-0.0110415
-0.0108703
-0.0106261
-0.0103107
-0.00992587
-0.00947399
-0.00895825
-0.00838114
-0.00774338
-0.00706446
0.00611914
0.00545124
0.00477866
0.00408439
0.00337032
0.0026388
0.00189093
0.00113247
0.000362644
-0.000412205
-0.00118845
-0.00196382
-0.0027326
-0.00348835
-0.00422897
-0.00494914
-0.00564112
-0.00630124
-0.00692527
-0.00750794
-0.00804297
-0.00852587
-0.00895427
-0.00932356
-0.00963058
-0.00987027
-0.0100428
-0.0101461
-0.0101788
-0.0101405
-0.0100296