/*--------------------------------*- C++ -*----------------------------------*\
| =========                 |                                                 |
| \\      /  F ield         | OpenFOAM: The Open Source CFD Toolbox           |
|  \\    /   O peration     | Version:  3.0.1                                 |
|   \\  /    A nd           | Web:      www.OpenFOAM.org                      |
|    \\/     M anipulation  |                                                 |
\*---------------------------------------------------------------------------*/
FoamFile
{
    version     2.0;
    format      ascii;
    class       surfaceScalarField;
    location    "450";
    object      phi;
}
// * * * * * * * * * * * * * * * * * * * * * * * * * * * * * * * * * * * * * //

dimensions      [0 3 -1 0 0 0 0];

internalField   nonuniform List<scalar> 
115520
(
0.0143879
-0.00176008
-0.0126278
0.0153613
-0.000973375
0.0153413
1.99607e-05
0.0147984
0.000542965
0.014008
0.000790408
0.0131348
0.000873203
0.0123685
0.000766385
0.0116628
0.000705711
0.0111264
0.000536472
0.0107567
0.000369731
0.0105022
0.00025452
0.0103729
0.000129277
0.0103694
3.5122e-06
0.010431
-6.15383e-05
0.0105362
-0.000105227
0.0106853
-0.000149068
0.0108645
-0.000179115
0.0110535
-0.000189011
0.0112429
-0.000189352
0.0114332
-0.000190362
0.0116277
-0.00019443
0.0118158
-0.000188131
0.0119935
-0.000177665
0.0121577
-0.000164185
0.0123181
-0.0001604
0.0124696
-0.000151523
0.0126097
-0.000140054
0.0127367
-0.000126994
0.0128493
-0.000112543
0.012955
-0.000105742
0.0130496
-9.45566e-05
0.0131318
-8.22095e-05
0.0132012
-6.93457e-05
0.0132572
-5.60839e-05
0.0132897
-3.24187e-05
0.0132704
1.92643e-05
0.013225
4.54634e-05
0.0131815
4.35135e-05
0.0131695
1.19368e-05
-4.20938e-05
0.0132116
0.00945985
-0.00287672
-0.00834321
0.0104593
-0.00197286
0.0114077
-0.000928358
0.012253
-0.000302332
0.0129284
0.000115059
0.0134009
0.000400676
0.0137123
0.000455071
0.0138582
0.000559794
0.0139197
0.000474933
0.0139281
0.000361418
0.0138797
0.000302943
0.0138244
0.000184589
0.0138035
2.43779e-05
0.0137871
-4.51374e-05
0.0137835
-0.000101578
0.0138242
-0.000189758
0.0138933
-0.000248155
0.0139744
-0.000270166
0.0140655
-0.000280383
0.0141769
-0.000301802
0.014305
-0.000322474
0.0144339
-0.000317106
0.0145615
-0.000305245
0.0146852
-0.000287799
0.0148193
-0.000294551
0.0149479
-0.000280097
0.0150687
-0.000260842
0.0151804
-0.000238639
0.0152815
-0.000213707
0.015383
-0.000207189
0.0154736
-0.00018516
0.0155525
-0.000161058
0.0156187
-0.000135536
0.0156712
-0.000108582
0.0157134
-7.46972e-05
0.0157409
-8.21813e-06
0.0157579
2.85407e-05
0.0157704
3.097e-05
0.0157852
-2.80873e-06
-7.35685e-05
0.0158166
0.00884097
-0.00391165
-0.00780603
0.00977097
-0.00290285
0.0106175
-0.0017749
0.0113409
-0.00102565
0.0119845
-0.000528573
0.0125507
-0.000165479
0.0130145
-8.78516e-06
0.0134009
0.000173453
0.013699
0.00017687
0.0139282
0.000132159
0.0140972
0.000133987
0.0142267
5.5078e-05
0.0143442
-9.30808e-05
0.0144435
-0.000144474
0.0145347
-0.000192768
0.0146441
-0.000299155
0.0147652
-0.000369172
0.0148893
-0.000394267
0.0150169
-0.000408008
0.0151572
-0.00044208
0.0153071
-0.000472339
0.0154553
-0.000465349
0.0156009
-0.000450805
0.0157422
-0.000429139
0.0158895
-0.000441794
0.0160298
-0.000420386
0.0161618
-0.000392828
0.0162848
-0.000361605
0.0163978
-0.000326777
0.0165079
-0.000317228
0.0166063
-0.000283562
0.0166925
-0.000247274
0.016766
-0.000209061
0.0168262
-0.000168767
0.0168752
-0.000123658
0.0169096
-4.26313e-05
0.0169303
7.84746e-06
0.0169417
1.96247e-05
0.0169451
-6.21014e-06
-6.90347e-05
0.0169405
0.00804154
-0.0047982
-0.007155
0.00890464
-0.00376594
0.00974534
-0.00261559
0.0105099
-0.0017902
0.011205
-0.00122368
0.0118293
-0.000789743
0.012371
-0.000550531
0.0128558
-0.000311337
0.0132709
-0.000238183
0.0136279
-0.000224888
0.0139337
-0.000171761
0.0141953
-0.000206546
0.0144283
-0.000326049
0.0146333
-0.000349489
0.0148163
-0.000375718
0.0149956
-0.000478464
0.0151715
-0.000545049
0.0153409
-0.000563714
0.0155061
-0.00057318
0.0156756
-0.000611557
0.0158486
-0.000645311
0.0160172
-0.000633993
0.0161811
-0.000614628
0.0163393
-0.000587321
0.0165004
-0.000602914
0.0166539
-0.000573924
0.0167986
-0.000537471
0.0169336
-0.000496671
0.0170584
-0.000451535
0.017179
-0.000437764
0.0172877
-0.000392289
0.017384
-0.000343583
0.0174674
-0.00029245
0.0175374
-0.00023874
0.0175966
-0.000182874
0.0176428
-8.88774e-05
0.0176752
-2.44994e-05
0.0176953
-4.6172e-07
0.0177042
-1.50889e-05
-6.65011e-05
0.0177016
0.00761817
-0.00561652
-0.00679985
0.00843164
-0.00457942
0.0092479
-0.00343184
0.0100219
-0.00256418
0.0107522
-0.00195397
0.0114293
-0.00146683
0.0120309
-0.00115219
0.0125852
-0.000865623
0.013073
-0.00072597
0.0135047
-0.000656594
0.0138899
-0.000556891
0.0142296
-0.00054627
0.0145333
-0.000629701
0.0148066
-0.0006228
0.0150536
-0.000622775
0.0152866
-0.000711446
0.0155083
-0.000766685
0.0157181
-0.000773487
0.0159184
-0.000773503
0.0161166
-0.000809736
0.0163131
-0.000841794
0.0165025
-0.000823448
0.0166849
-0.000797021
0.0168599
-0.000762348
0.0170346
-0.000777597
0.0172006
-0.000739897
0.0173568
-0.000693642
0.0175026
-0.000642511
0.0176376
-0.000586498
0.0177665
-0.000566656
0.017883
-0.000508821
0.0179866
-0.000447183
0.0180769
-0.000382743
0.0181536
-0.000315385
0.0182188
-0.000248063
0.0182708
-0.000140914
0.0183084
-6.20857e-05
0.018332
-2.40001e-05
0.0183415
-2.4607e-05
-6.14693e-05
0.0183364
0.00731033
-0.00639227
-0.00653459
0.00808961
-0.00535869
0.00888057
-0.0042228
0.00964943
-0.00333304
0.0103948
-0.00269933
0.0111059
-0.00217795
0.0117559
-0.00180212
0.0123691
-0.00147883
0.0129213
-0.00127817
0.01342
-0.00115531
0.0138751
-0.00101201
0.0142837
-0.000954853
0.0146509
-0.000996879
0.0149854
-0.000957325
0.0152902
-0.000927589
0.015573
-0.000994204
0.0158381
-0.00103174
0.0160867
-0.00102208
0.0163212
-0.00100808
0.0165479
-0.0010364
0.0167681
-0.00106198
0.0169785
-0.00103383
0.0171794
-0.000997943
0.0173709
-0.000953858
0.0175591
-0.000965727
0.0177372
-0.000918008
0.0179044
-0.000860884
0.0180604
-0.000798465
0.0182046
-0.000730714
0.0183413
-0.00070331
0.0184649
-0.000632486
0.0185751
-0.000557342
0.0186714
-0.000479048
0.0187535
-0.000397527
0.0188235
-0.000318027
0.0188799
-0.000197247
0.0189212
-0.000103403
0.0189475
-5.02785e-05
0.0189585
-3.5697e-05
-5.70018e-05
0.0189541
0.00710074
-0.00714605
-0.00634697
0.0078601
-0.00611806
0.00863279
-0.00499549
0.00939296
-0.00409321
0.0101411
-0.00344745
0.0108686
-0.0029055
0.011549
-0.00248245
0.0122038
-0.00213366
0.0128061
-0.00188049
0.0133602
-0.00170942
0.0138753
-0.00152713
0.0143449
-0.00142443
0.0147702
-0.00142215
0.0151617
-0.00134886
0.0155214
-0.00128719
0.0158527
-0.00132559
0.0161613
-0.00134031
0.0164496
-0.00131034
0.0167198
-0.00127834
0.0169769
-0.0012935
0.017223
-0.00130803
0.0174564
-0.00126723
0.0176778
-0.0012193
0.0178874
-0.00116352
0.0180905
-0.00116879
0.018282
-0.00110948
0.0184613
-0.00104016
0.018628
-0.000965251
0.018782
-0.000884687
0.0189268
-0.000848047
0.0190577
-0.000763411
0.0191744
-0.000673998
0.0192764
-0.000581128
0.0193637
-0.000484755
0.0194378
-0.000392125
0.0194975
-0.000256952
0.0195414
-0.000147356
0.0195694
-7.82657e-05
0.0195812
-4.74469e-05
-5.21691e-05
0.0195763
0.00695529
-0.00789079
-0.00621056
0.0077058
-0.00686857
0.00846878
-0.00575847
0.00922361
-0.00484803
0.00997199
-0.00419583
0.0107079
-0.00364138
0.0114073
-0.00318186
0.01209
-0.00281634
0.0127291
-0.0025196
0.0133266
-0.00230691
0.0138907
-0.00209124
0.0144124
-0.00194611
0.0148895
-0.00189929
0.0153333
-0.00179268
0.0157444
-0.0016983
0.0161231
-0.00170422
0.016475
-0.00169229
0.0168037
-0.00163901
0.0171111
-0.00158569
0.0174006
-0.00158303
0.0176748
-0.00158224
0.0179336
-0.00152598
0.0181777
-0.00146338
0.0184076
-0.0013935
0.0186277
-0.00138883
0.0188343
-0.00131612
0.0190272
-0.00123306
0.0192062
-0.00114426
0.0193711
-0.00104958
0.019525
-0.0010019
0.019664
-0.00090245
0.0197879
-0.000797837
0.0198962
-0.000689499
0.0199889
-0.000577409
0.0200673
-0.00047058
0.0201305
-0.000320126
0.0201771
-0.000193966
0.0202069
-0.000108025
0.0202195
-6.00678e-05
-4.73652e-05
0.0202147
0.00685703
-0.00863553
-0.00611229
0.00760699
-0.00761854
0.00836777
-0.00651926
0.00912227
-0.00560253
0.00987274
-0.00494631
0.010615
-0.00438361
0.0113282
-0.00389507
0.0120304
-0.0035186
0.0126968
-0.00318592
0.0133278
-0.00293791
0.0139308
-0.00269431
0.0144956
-0.0025109
0.0150176
-0.00242123
0.0155077
-0.00228285
0.0159657
-0.0021563
0.0163889
-0.00212735
0.0167829
-0.00208631
0.0171515
-0.00200765
0.0174963
-0.0019305
0.0178194
-0.00190613
0.0181235
-0.00188628
0.0184094
-0.00181195
0.0186782
-0.00173217
0.0189305
-0.00164578
0.0191695
-0.00162784
0.0193932
-0.00153982
0.0196015
-0.00144132
0.0197943
-0.00133706
0.0199715
-0.00122683
0.0201358
-0.00116614
0.0202841
-0.00105072
0.020416
-0.000929816
0.0205315
-0.000804968
0.0206303
-0.000676154
0.0207136
-0.000553936
0.0207807
-0.000387197
0.0208303
-0.000243567
0.0208621
-0.000139836
0.0208759
-7.37981e-05
-4.27696e-05
0.0208713
0.00679457
-0.00938682
-0.00604328
0.00755025
-0.00837422
0.00831496
-0.00728397
0.00907409
-0.00636165
0.00983
-0.00570222
0.0105797
-0.0051333
0.0113052
-0.00462063
0.0120233
-0.00423662
0.0127112
-0.00387384
0.013369
-0.00359573
0.0140034
-0.00332877
0.0146038
-0.00311129
0.015164
-0.00298143
0.0156946
-0.00281342
0.0161944
-0.00265607
0.0166584
-0.00259139
0.0170921
-0.00251994
0.0174991
-0.00241467
0.0178806
-0.00231198
0.0182373
-0.0022629
0.0185719
-0.00222088
0.0188862
-0.00212621
0.019181
-0.00202696
0.019457
-0.00192183
0.0197167
-0.00188744
0.019959
-0.00178218
0.0201842
-0.00166649
0.0203922
-0.00154511
0.0205832
-0.00141776
0.0207591
-0.00134204
0.0209177
-0.00120936
0.0210589
-0.00107096
0.0211823
-0.000928437
0.021288
-0.000781778
0.0213769
-0.00064288
0.0214485
-0.000458759
0.0215016
-0.000296671
0.0215359
-0.000174146
0.0215511
-8.90343e-05
-3.87147e-05
0.0215471
0.00676034
-0.0101496
-0.00599753
0.00752663
-0.00914051
0.00830025
-0.00805759
0.00906839
-0.0071298
0.00983332
-0.00646715
0.0105928
-0.00589277
0.0113313
-0.00535915
0.012064
-0.00496934
0.0127709
-0.00458069
0.0134516
-0.00427646
0.0141125
-0.00398961
0.014743
-0.00374181
0.0153362
-0.00357468
0.015902
-0.00337924
0.0164388
-0.00319281
0.01694
-0.00309257
0.0174103
-0.00299029
0.0178535
-0.00285786
0.0182701
-0.00272859
0.0186598
-0.00265262
0.0190249
-0.00258598
0.0193678
-0.0024691
0.0196893
-0.00234841
0.01999
-0.00222252
0.0202713
-0.00216875
0.0205335
-0.00204438
0.0207768
-0.00190976
0.0210012
-0.0017696
0.021207
-0.00162353
0.0213957
-0.0015307
0.0215657
-0.00137939
0.021717
-0.0012222
0.0218493
-0.00106076
0.0219626
-0.000895046
0.0220578
-0.000738101
0.0221344
-0.000535421
0.0221916
-0.000353808
0.0222289
-0.00021142
0.022246
-0.000106173
-3.5529e-05
0.0222428
0.00674907
-0.0109279
-0.0059708
0.00752992
-0.00992137
0.00831652
-0.00884419
0.00909748
-0.00791076
0.00987482
-0.00724449
0.0106468
-0.00666472
0.0113998
-0.00611221
0.0121478
-0.00571728
0.0128728
-0.00530569
0.0135745
-0.00497824
0.0142589
-0.00467394
0.0149159
-0.00439883
0.0155384
-0.0041972
0.0161355
-0.00397635
0.0167053
-0.00376255
0.0172402
-0.00362752
0.0177445
-0.00349455
0.0182215
-0.00333485
0.0186713
-0.00317845
0.0190928
-0.0030741
0.0194878
-0.00298099
0.0198591
-0.00284037
0.0202073
-0.00269657
0.0205329
-0.00254817
0.0208366
-0.00247244
0.0211194
-0.00232719
0.0213816
-0.00217197
0.0216234
-0.00201138
0.0218449
-0.00184501
0.0220472
-0.00173304
0.0222295
-0.00156169
0.0223917
-0.00138435
0.0225336
-0.00120267
0.0226552
-0.00101663
0.0227573
-0.000840219
0.0228396
-0.000617736
0.0229013
-0.000415464
0.0229419
-0.000252081
0.0229613
-0.00012558
-3.35088e-05
0.0229593
0.00675701
-0.0117249
-0.00596002
0.00755569
-0.0107201
0.0083587
-0.00964721
0.00915576
-0.00870781
0.0099486
-0.00803734
0.0107358
-0.00745188
0.0115053
-0.00688177
0.0122698
-0.00648174
0.0130133
-0.00604919
0.0137356
-0.00570053
0.014442
-0.00538038
0.0151235
-0.0050803
0.0157728
-0.00484653
0.0163984
-0.00460192
0.0169981
-0.0043623
0.0175641
-0.00419349
0.0180998
-0.00403027
0.0186084
-0.00384343
0.0190896
-0.00365969
0.0195415
-0.00352596
0.0199655
-0.00340503
0.0203646
-0.00323947
0.0207392
-0.00307117
0.0210898
-0.00289875
0.0214162
-0.0027988
0.02172
-0.00263105
0.0220017
-0.00245363
0.0222614
-0.00227104
0.0224991
-0.0020828
0.0227158
-0.00194973
0.0229111
-0.00175691
0.0230847
-0.00155803
0.0232369
-0.00135477
0.0233673
-0.00114708
0.0234768
-0.000949747
0.0235653
-0.000706168
0.0236319
-0.00048205
0.0236763
-0.000296486
0.0236982
-0.000147558
-3.29016e-05
0.0236976
0.0067814
-0.0125434
-0.00596292
0.00760075
-0.0115394
0.00842312
-0.0104696
0.00923914
-0.00952383
0.0100503
-0.00884848
0.0108552
-0.00825682
0.0116434
-0.00766992
0.012426
-0.00726439
0.013189
-0.00681219
0.0139322
-0.00644365
0.0146604
-0.0061086
0.0153653
-0.00578523
0.01604
-0.00552127
0.0166923
-0.00525415
0.0173199
-0.00498994
0.0179149
-0.00478843
0.0184801
-0.0045955
0.0190184
-0.00438177
0.0195294
-0.00417064
0.0200103
-0.00400691
0.0204624
-0.00385715
0.0208886
-0.00366567
0.0212892
-0.00347173
0.0216644
-0.00327399
0.0220135
-0.00314787
0.0223386
-0.00295613
0.02264
-0.00275503
0.0229179
-0.00254893
0.0231724
-0.00233733
0.023404
-0.00218126
0.0236126
-0.00196554
0.0237983
-0.00174374
0.0239611
-0.00151752
0.0241008
-0.00128682
0.0242182
-0.0010671
0.0243131
-0.00080109
0.0243849
-0.000553891
0.0244334
-0.000344917
0.0244581
-0.000172341
-3.38907e-05
0.0244591
0.00682023
-0.0133858
-0.00597779
0.00766273
-0.0123819
0.00850707
-0.0113139
0.00934462
-0.0103614
0.0101766
-0.00968043
0.0110017
-0.00908196
0.0118105
-0.00847874
0.0126132
-0.00806708
0.0133971
-0.00759605
0.0141619
-0.00720846
0.0149122
-0.00685895
0.0156405
-0.00651345
0.01634
-0.0062208
0.0170179
-0.00593204
0.0176721
-0.00564417
0.0182946
-0.00541094
0.0188879
-0.00518882
0.0194546
-0.00494843
0.0199939
-0.00470993
0.0205028
-0.00451581
0.0209821
-0.00433648
0.0214347
-0.00411828
0.0218607
-0.00389771
0.0222602
-0.00367352
0.0226319
-0.00351956
0.0229782
-0.00330245
0.0232995
-0.00307627
0.0235958
-0.00284525
0.0238673
-0.00260883
0.024114
-0.00242799
0.0243364
-0.00218795
0.0245345
-0.00194183
0.0247083
-0.00169126
0.0248576
-0.0014362
0.0249831
-0.00119259
0.0250848
-0.00090279
0.0251622
-0.000631234
0.0252148
-0.000397579
0.0252426
-0.000200094
-3.6598e-05
0.0252453
0.00687195
-0.0142545
-0.00600331
0.00773987
-0.0132498
0.00860854
-0.0121826
0.00946996
-0.0112228
0.0103251
-0.0105355
0.0111727
-0.00992958
0.0120042
-0.00931023
0.0128288
-0.00889169
0.013635
-0.00840227
0.0144226
-0.00799609
0.0151959
-0.00763222
0.0159478
-0.00726532
0.0166721
-0.0069451
0.0173753
-0.00663523
0.0180554
-0.00632431
0.0187046
-0.00606016
0.0193251
-0.00580928
0.0199191
-0.0055424
0.0204857
-0.00527654
0.0210216
-0.00505176
0.0215274
-0.00484228
0.0220058
-0.00459665
0.0224567
-0.00434859
0.0228801
-0.00409695
0.0232742
-0.00391369
0.0236418
-0.00366996
0.0239829
-0.00341739
0.0242977
-0.00316007
0.0245863
-0.00289746
0.0248485
-0.00269015
0.0250849
-0.00242439
0.0252956
-0.00215255
0.0254806
-0.00187624
0.0256399
-0.00159543
0.0257737
-0.00132645
0.0258824
-0.00101148
0.0259654
-0.000714254
0.0260225
-0.000454611
0.0260533
-0.000230917
-4.10838e-05
0.0260578
0.00693538
-0.0151514
-0.00603846
0.00783085
-0.0141453
0.00872604
-0.0130778
0.00961349
-0.0121103
0.0104939
-0.0114159
0.0113661
-0.0108018
0.0122222
-0.0101664
0.0130706
-0.00974009
0.0139008
-0.00923247
0.0147126
-0.00880788
0.0155099
-0.00842947
0.0162861
-0.00804157
0.0170356
-0.00769456
0.0177642
-0.00736383
0.0184701
-0.00703018
0.0191456
-0.00673573
0.0197927
-0.0064564
0.0204134
-0.00616307
0.0210067
-0.00586979
0.021569
-0.00561413
0.0221008
-0.00537401
0.0226044
-0.0051003
0.0230798
-0.00482396
0.0235268
-0.00454394
0.0239432
-0.00433011
0.0243318
-0.00405856
0.0246927
-0.00377835
0.0250261
-0.00349344
0.0253319
-0.00320328
0.0256097
-0.0029679
0.0258603
-0.00267503
0.0260839
-0.00237608
0.0262803
-0.00207265
0.0264495
-0.00176469
0.0265919
-0.00146886
0.0267078
-0.0011273
0.0267966
-0.000803061
0.026858
-0.000516091
0.026892
-0.000264853
-4.73551e-05
0.0268982
0.00700963
-0.0160785
-0.00608246
0.00793465
-0.0150703
0.00885842
-0.0140016
0.00977395
-0.0130258
0.0106817
-0.0123237
0.0115806
-0.0117006
0.0124632
-0.0110491
0.0133373
-0.0106141
0.0141931
-0.0100883
0.0150305
-0.00964528
0.015853
-0.00925194
0.0166546
-0.00884318
0.0174299
-0.00846988
0.0181843
-0.00811828
0.0189161
-0.00776199
0.0196181
-0.00743766
0.0202917
-0.00713001
0.0209388
-0.00681017
0.0215583
-0.00648932
0.0221467
-0.00620253
0.022704
-0.00593131
0.0232326
-0.0056289
0.0237322
-0.00532351
0.0242025
-0.00501424
0.0246411
-0.00476868
0.0250507
-0.00446817
0.0254314
-0.00415913
0.0257834
-0.00384536
0.0261064
-0.00352634
0.0263999
-0.00326136
0.0266649
-0.00294
0.0269013
-0.00261256
0.0271093
-0.0022806
0.0272887
-0.0019441
0.0274398
-0.00161991
0.0275628
-0.00125034
0.0276575
-0.000897716
0.0277234
-0.000582045
0.0277605
-0.000301897
-5.53729e-05
0.0277685
0.00709404
-0.0170379
-0.00613468
0.00805053
-0.0160268
0.00900487
-0.0149559
0.00995045
-0.0139714
0.0108875
-0.0132608
0.011815
-0.0126281
0.012726
-0.0119601
0.0136275
-0.0115156
0.0145107
-0.0109714
0.0153752
-0.0105098
0.0162242
-0.010101
0.0170523
-0.00967129
0.0178544
-0.00927196
0.0186354
-0.00889928
0.0193937
-0.00852024
0.0201222
-0.00816625
0.0208225
-0.00783029
0.0214961
-0.00748373
0.0221418
-0.00713505
0.0227561
-0.00681685
0.0233389
-0.00651406
0.0238922
-0.00618227
0.0244158
-0.00584709
0.0249093
-0.00550771
0.02537
-0.00522934
0.0258005
-0.00489877
0.0262011
-0.00455972
0.0265716
-0.00421585
0.026912
-0.00386668
0.0272212
-0.00357062
0.0275006
-0.0032194
0.0277502
-0.00286208
0.0279697
-0.00250019
0.0281594
-0.00213374
0.0283192
-0.0017797
0.0284495
-0.00138065
0.02855
-0.000998241
0.0286204
-0.000652466
0.0286605
-0.000342006
-6.50603e-05
0.0286702
0.00718808
-0.0180313
-0.00619467
0.00817795
-0.0170167
0.00916477
-0.0159427
0.0101423
-0.0149489
0.0111106
-0.0142291
0.0120686
-0.013586
0.0130098
-0.0129014
0.0139406
-0.0124464
0.0148527
-0.0118836
0.0157459
-0.0114029
0.016623
-0.0109781
0.0174788
-0.0105272
0.0183087
-0.0101019
0.0191172
-0.00970773
0.0199026
-0.00930563
0.0206584
-0.00892206
0.0213857
-0.00855763
0.022086
-0.008184
0.0227581
-0.00780712
0.0233984
-0.00745715
0.0240066
-0.00712228
0.0245848
-0.00676045
0.0251323
-0.00639469
0.025649
-0.00602431
0.0261317
-0.00571212
0.0265834
-0.00535038
0.0270038
-0.00498017
0.0273929
-0.00460497
0.0277506
-0.00422436
0.0280758
-0.00389579
0.0283697
-0.00351333
0.0286323
-0.00312472
0.0288636
-0.0027315
0.0290635
-0.00233365
0.0292321
-0.00194826
0.0293697
-0.00151827
0.0294761
-0.00110463
0.029551
-0.000727314
0.0295941
-0.000385108
-7.63122e-05
0.0296053
0.00729137
-0.0190607
-0.00626203
0.00831648
-0.0180418
0.0093377
-0.0169639
0.0103491
-0.0159603
0.0113505
-0.0152305
0.0123408
-0.0145763
0.0133141
-0.0138747
0.0142759
-0.0134082
0.0152187
-0.0128264
0.0161421
-0.0123263
0.0170487
-0.0118846
0.0179337
-0.0114122
0.0187926
-0.0109608
0.0196296
-0.0105447
0.020443
-0.0101191
0.0212267
-0.00970579
0.0219817
-0.00931261
0.0227092
-0.00891146
0.0234079
-0.00850588
0.0240745
-0.00812372
0.0247084
-0.0077562
0.0253116
-0.00736357
0.0258833
-0.00696641
0.0264231
-0.00656415
0.0269281
-0.00621714
0.0274009
-0.00582312
0.0278413
-0.00542056
0.0282491
-0.0050128
0.0286242
-0.00459947
0.0289654
-0.00423696
0.0292739
-0.00382189
0.0295498
-0.00340059
0.0297929
-0.00297458
0.0300031
-0.00254389
0.0301805
-0.00212562
0.0303254
-0.0016632
0.0304377
-0.00121686
0.0305169
-0.000806532
0.0305629
-0.000431112
-8.9001e-05
0.0305756
0.00740363
-0.0201278
-0.00633651
0.00846585
-0.019104
0.00952335
-0.0180214
0.0105705
-0.0170074
0.0116069
-0.016267
0.0126314
-0.0156008
0.0136385
-0.0148818
0.0146332
-0.0144029
0.0156083
-0.0138016
0.0165636
-0.0132816
0.0175012
-0.0128223
0.0184168
-0.0123277
0.019306
-0.01185
0.0201726
-0.0114113
0.0210151
-0.0109616
0.0218276
-0.0105184
0.022611
-0.010096
0.0233663
-0.00966672
0.0240923
-0.00923187
0.0247855
-0.00881698
0.0254455
-0.00841619
0.0260739
-0.00799195
0.02667
-0.00756252
0.0272333
-0.00712742
0.0277607
-0.00674458
0.0282548
-0.00631717
0.0287153
-0.00588107
0.029142
-0.00543949
0.0295346
-0.00499214
0.029892
-0.00459429
0.0302153
-0.00414519
0.0305045
-0.00368977
0.0307594
-0.00322952
0.03098
-0.00276451
0.0311662
-0.00231184
0.0313185
-0.00181545
0.0314365
-0.0013349
0.03152
-0.000890052
0.0315688
-0.000479909
-0.000102981
0.0315828
0.00752468
-0.0212346
-0.00641788
0.00862588
-0.0202052
0.00972156
-0.0191171
0.0108063
-0.0180922
0.0118796
-0.0173403
0.0129402
-0.0166614
0.0139829
-0.0159245
0.0150122
-0.0154321
0.0160214
-0.0148108
0.0170102
-0.0142703
0.0179804
-0.0137925
0.018928
-0.0132753
0.0198489
-0.0127708
0.0207464
-0.0123088
0.0216191
-0.0118343
0.0224615
-0.0113607
0.0232741
-0.0109086
0.024058
-0.0104506
0.0248119
-0.00998575
0.0255324
-0.00953752
0.026219
-0.00910274
0.026873
-0.00864602
0.0274939
-0.00818337
0.0280809
-0.00771445
0.0286311
-0.00729476
0.0291467
-0.00683278
0.0296276
-0.00636191
0.0300733
-0.00588525
0.0304837
-0.00540254
0.0308574
-0.00496794
0.0311956
-0.00448339
0.0314982
-0.00399238
0.0317651
-0.00349642
0.0319961
-0.00299558
0.0321912
-0.00250693
0.0323508
-0.00197501
0.0324746
-0.00145871
0.0325624
-0.000977795
0.0326138
-0.000531382
-0.000118095
0.0326289
0.00765438
-0.022383
-0.00650602
0.00879649
-0.0213473
0.00993225
-0.0202529
0.0110565
-0.0192164
0.0121685
-0.0184523
0.0132671
-0.0177599
0.0143472
-0.0170047
0.0154129
-0.0164978
0.016458
-0.0158559
0.0174819
-0.0152942
0.0184865
-0.014797
0.0194676
-0.0142564
0.0204215
-0.0137248
0.0213513
-0.0132386
0.0222554
-0.0127385
0.0231288
-0.0122341
0.0239717
-0.0117516
0.024785
-0.0112639
0.0255676
-0.0107683
0.0263161
-0.010286
0.0270298
-0.00981647
0.0277101
-0.00932632
0.0283562
-0.00882946
0.0289674
-0.00832565
0.0295407
-0.00786805
0.0300782
-0.00737031
0.0305797
-0.00686341
0.0310448
-0.00635034
0.0314732
-0.00583091
0.0318634
-0.00535814
0.0322167
-0.00483667
0.0325329
-0.00430858
0.0328118
-0.00377537
0.0330534
-0.00323715
0.0332574
-0.00271094
0.0334243
-0.0021419
0.0335538
-0.00158825
0.0336457
-0.00106968
0.0336998
-0.000585405
-0.000134171
0.0337158
0.0077927
-0.0235749
-0.00660082
0.00897764
-0.0225322
0.0101554
-0.0214307
0.0113211
-0.020382
0.0124738
-0.019605
0.0136122
-0.0188983
0.0147316
-0.0181241
0.0158356
-0.0176018
0.0169183
-0.0169387
0.0179791
-0.016355
0.0190195
-0.0158374
0.0200358
-0.0152727
0.0210242
-0.0147132
0.0219876
-0.014202
0.0229246
-0.0136754
0.02383
-0.0131395
0.0247043
-0.0126259
0.0255482
-0.0121078
0.0263603
-0.0115805
0.0271376
-0.0110633
0.0278793
-0.0105581
0.0285865
-0.0100335
0.0292584
-0.00950136
0.0298943
-0.00896154
0.0304911
-0.00846493
0.031051
-0.00793016
0.0315735
-0.00738592
0.0320582
-0.00683508
0.0325049
-0.00627753
0.0329119
-0.00576513
0.0332804
-0.00520524
0.0336104
-0.00463853
0.0339015
-0.00406651
0.0341537
-0.00348934
0.0343667
-0.00292393
0.0345409
-0.00231612
0.0346762
-0.0017235
0.0347721
-0.00116562
0.0348285
-0.000641848
-0.000151036
0.0348454
0.00793963
-0.0248122
-0.00670225
0.00916938
-0.023762
0.0103912
-0.0226525
0.0116002
-0.021591
0.0127955
-0.0208003
0.0139757
-0.0200785
0.0151363
-0.0192847
0.0162804
-0.0187459
0.0174025
-0.0180608
0.0185019
-0.0174544
0.0195799
-0.0169155
0.020633
-0.0163257
0.0216575
-0.0157378
0.022656
-0.0152005
0.0236271
-0.0146465
0.024566
-0.0140784
0.0254729
-0.0135328
0.0263483
-0.0129832
0.0271911
-0.0124232
0.0279981
-0.0118703
0.0287684
-0.0113285
0.0295033
-0.0107683
0.0302016
-0.0101997
0.0308628
-0.00962273
0.0314838
-0.00908594
0.0320665
-0.00851283
0.0326105
-0.00792988
0.0331153
-0.00733987
0.0335805
-0.00674274
0.0340046
-0.00618921
0.0343887
-0.00558935
0.0347326
-0.00498245
0.0350361
-0.00437
0.035299
-0.00375223
0.035521
-0.00314597
0.0357026
-0.0024977
0.0358435
-0.00186441
0.0359434
-0.00126555
0.0360022
-0.000700583
-0.000168508
0.0360196
0.00809521
-0.0260972
-0.00681029
0.0093718
-0.0250386
0.0106396
-0.0239203
0.0118941
-0.0228454
0.0131339
-0.0220402
0.0143579
-0.0213024
0.0155615
-0.0204883
0.0167476
-0.019932
0.017911
-0.0192242
0.0190508
-0.0185943
0.0201682
-0.0180329
0.0212597
-0.0174172
0.022322
-0.0168
0.0233571
-0.0162356
0.0243638
-0.0156532
0.0253374
-0.015052
0.0262781
-0.0144735
0.0271863
-0.0138914
0.0280608
-0.0132977
0.0288985
-0.012708
0.0296985
-0.0121286
0.0304618
-0.0115316
0.0311875
-0.0109254
0.0318746
-0.0103099
0.0325204
-0.00973171
0.0331264
-0.00911888
0.0336924
-0.0084958
0.0342176
-0.00786514
0.0347018
-0.00722692
0.0351433
-0.00663074
0.0355433
-0.0059893
0.0359014
-0.00534056
0.0362174
-0.00468603
0.0364912
-0.00402598
0.0367224
-0.00337713
0.0369113
-0.00268667
0.0370579
-0.00201098
0.0371617
-0.00136938
0.0372226
-0.000761481
-0.000186403
0.0372405
0.00825953
-0.0274317
-0.00692498
0.00958505
-0.0263641
0.010901
-0.0252363
0.0122029
-0.0241473
0.0134894
-0.0233267
0.014759
-0.022572
0.0160077
-0.021737
0.0172378
-0.0211621
0.0184443
-0.0204307
0.0196264
-0.0197763
0.020785
-0.0191914
0.0219167
-0.0185489
0.0230182
-0.0179016
0.0240916
-0.017309
0.0251354
-0.016697
0.0261453
-0.0160619
0.0271211
-0.0154494
0.0280634
-0.0148336
0.0289707
-0.014205
0.0298402
-0.0135775
0.0306709
-0.0129593
0.0314635
-0.0123243
0.0322173
-0.0116791
0.0329312
-0.0110238
0.0336024
-0.0104029
0.0342325
-0.00974895
0.0348209
-0.00908424
0.0353672
-0.0084114
0.0358708
-0.00773052
0.0363301
-0.00709009
0.0367462
-0.00640542
0.0371188
-0.00571314
0.0374476
-0.00501482
0.0377324
-0.00431074
0.0379728
-0.00361754
0.0381692
-0.00288308
0.0383214
-0.00216319
0.0384291
-0.00147706
0.038492
-0.000824415
-0.000204535
0.0385101
0.00843272
-0.028818
-0.00704638
0.0098093
-0.0277407
0.0111755
-0.0266025
0.0125269
-0.0254987
0.0138621
-0.024662
0.0151796
-0.0238895
0.0164754
-0.0230328
0.0177514
-0.0224382
0.0190031
-0.0216824
0.0202293
-0.0210026
0.0214309
-0.020393
0.0226045
-0.0197226
0.0237472
-0.0190442
0.0248604
-0.0184223
0.0259429
-0.0177795
0.0269905
-0.0171094
0.0280029
-0.0164619
0.0289805
-0.0158112
0.0299219
-0.0151464
0.0308243
-0.0144799
0.0316868
-0.0138217
0.0325098
-0.0131473
0.0332926
-0.0124618
0.0340341
-0.0117653
0.0347315
-0.0111004
0.0353863
-0.0104037
0.0359979
-0.00969582
0.0365657
-0.00897921
0.0370892
-0.00825402
0.0375668
-0.0075677
0.0379994
-0.00683807
0.0383868
-0.00610051
0.0387286
-0.0053566
0.0390245
-0.00460669
0.0392743
-0.00386731
0.0394782
-0.00308701
0.0396361
-0.00232104
0.0397475
-0.00158851
0.0398124
-0.000889258
-0.000222713
0.0398306
0.00861493
-0.0302584
-0.00717458
0.0100448
-0.0291706
0.0114635
-0.0280212
0.0128666
-0.0269018
0.0142527
-0.0260481
0.0156201
-0.0252569
0.016965
-0.0243777
0.018289
-0.0237622
0.0195878
-0.0229811
0.0208601
-0.0222749
0.0221066
-0.0216395
0.0233241
-0.0209401
0.0245096
-0.0202297
0.0256644
-0.0195771
0.0267873
-0.0189023
0.0278741
-0.0181962
0.0289246
-0.0175124
0.0299389
-0.0168255
0.0309158
-0.0161233
0.0318524
-0.0154165
0.0327477
-0.014717
0.0336022
-0.0140018
0.0344149
-0.0132745
0.0351849
-0.0125353
0.0359094
-0.0118249
0.0365897
-0.0110839
0.0372251
-0.0103312
0.037815
-0.00956917
0.038359
-0.00879797
0.0388553
-0.00806406
0.0393049
-0.00728767
0.0397074
-0.00650301
0.0400625
-0.00571166
0.0403698
-0.00491404
0.0406291
-0.00412659
0.0408406
-0.00329852
0.0410042
-0.00248456
0.0411193
-0.00170369
0.041186
-0.000955889
-0.000240744
0.041204
0.00880635
-0.0317551
-0.00730969
0.0102918
-0.030656
0.0117652
-0.0294945
0.0132222
-0.0283589
0.0146614
-0.0274872
0.0160809
-0.0266764
0.0174771
-0.0257739
0.0188513
-0.0251364
0.0201992
-0.024329
0.0215197
-0.0235954
0.0228131
-0.0229328
0.0240763
-0.0222033
0.0253065
-0.0214598
0.0265047
-0.0207754
0.0276696
-0.0200672
0.0287973
-0.0193239
0.0298875
-0.0186026
0.03094
-0.0178781
0.0319537
-0.017137
0.0329258
-0.0163886
0.0338552
-0.0156464
0.0347423
-0.0148889
0.0355861
-0.0141183
0.0363855
-0.0133348
0.037138
-0.0125773
0.0378445
-0.0117905
0.0385045
-0.0109912
0.0391172
-0.010182
0.0396822
-0.00936296
0.0401979
-0.00857967
0.0406649
-0.00775467
0.0410829
-0.00692101
0.0414515
-0.00608031
0.0417705
-0.00523304
0.0420395
-0.00439555
0.0422587
-0.00351772
0.0424279
-0.00265376
0.0425467
-0.00182254
0.042615
-0.00102419
-0.000258433
0.0426327
0.00900722
-0.0333104
-0.00745186
0.0105506
-0.0321993
0.012081
-0.031025
0.0135944
-0.0298722
0.0150889
-0.0289817
0.0165628
-0.0281503
0.0180125
-0.0272236
0.019439
-0.026563
0.0208383
-0.0257283
0.0222089
-0.0249661
0.0235512
-0.0242751
0.0248622
-0.0235143
0.0261389
-0.0227365
0.0273824
-0.0220188
0.0285911
-0.021276
0.0297614
-0.0204942
0.0308928
-0.019734
0.0319851
-0.0189704
0.0330371
-0.018189
0.0340461
-0.0173976
0.0350109
-0.0166112
0.0359318
-0.0158098
0.0368077
-0.0149942
0.0376377
-0.0141648
0.038419
-0.0133587
0.0391527
-0.0125241
0.039838
-0.0116766
0.0404743
-0.0108183
0.041061
-0.00994964
0.0415965
-0.00911511
0.0420814
-0.00823955
0.0425153
-0.00735493
0.0428979
-0.00646288
0.0432288
-0.00556395
0.0435076
-0.00467438
0.0437346
-0.00374473
0.0439095
-0.00282868
0.044032
-0.00194504
0.0441019
-0.00109404
-0.00027558
0.044119
0.00921777
-0.0349269
-0.00760126
0.0108215
-0.0338031
0.0124114
-0.0326149
0.0139835
-0.0314443
0.0155357
-0.030534
0.0170664
-0.0296809
0.0185718
-0.0287291
0.0200529
-0.028044
0.0215057
-0.027181
0.0229287
-0.0263891
0.024322
-0.0256684
0.0256827
-0.024875
0.027008
-0.0240618
0.0282986
-0.0233094
0.029553
-0.0225304
0.0307677
-0.0217088
0.031942
-0.0209083
0.0330758
-0.0201042
0.0341676
-0.0192808
0.0352148
-0.0184448
0.0362164
-0.0176127
0.0371723
-0.0167658
0.0380816
-0.0159035
0.0389432
-0.0150264
0.0397545
-0.0141699
0.0405162
-0.0132859
0.0412278
-0.0123881
0.0418885
-0.0114789
0.0424975
-0.0105587
0.0430534
-0.009671
0.0435567
-0.00874286
0.044007
-0.00780522
0.0444039
-0.00685975
0.044747
-0.00590706
0.0450359
-0.0049633
0.0452708
-0.00397968
0.0454516
-0.00300939
0.0455777
-0.00207115
0.045649