/*--------------------------------*- C++ -*----------------------------------*\
| =========                 |                                                 |
| \\      /  F ield         | OpenFOAM: The Open Source CFD Toolbox           |
|  \\    /   O peration     | Version:  3.0.1                                 |
|   \\  /    A nd           | Web:      www.OpenFOAM.org                      |
|    \\/     M anipulation  |                                                 |
\*---------------------------------------------------------------------------*/
FoamFile
{
    version     2.0;
    format      ascii;
    class       volVectorField;
    location    "450";
    object      U;
}
// * * * * * * * * * * * * * * * * * * * * * * * * * * * * * * * * * * * * * //

dimensions      [0 1 -1 0 0 0 0];

internalField   nonuniform List<vector> 
58000
(
(0.300528 1.19396 2.39081e-21)
(0.448419 1.31742 -1.88402e-20)
(0.599714 1.35447 2.04888e-20)
(0.727773 1.30768 -3.09504e-20)
(0.828193 1.21772 -6.19674e-20)
(0.906648 1.10927 0)
(0.968201 1.00123 -3.47868e-20)
(1.0144 0.896889 -5.16255e-22)
(1.05154 0.801217 3.96046e-20)
(1.08124 0.71976 0)
(1.10511 0.649359 4.27567e-20)
(1.1254 0.588981 4.06344e-20)
(1.14415 0.540576 -1.29223e-19)
(1.15789 0.500678 4.50229e-20)
(1.16785 0.466683 4.03042e-20)
(1.17555 0.438286 8.05114e-20)
(1.18102 0.414583 -1.18189e-19)
(1.18487 0.393882 0)
(1.18753 0.37485 7.44094e-20)
(1.18931 0.357082 -1.10221e-19)
(1.19028 0.340829 9.53698e-22)
(1.19035 0.325667 3.57781e-20)
(1.18997 0.311083 1.69419e-20)
(1.18867 0.296528 0)
(1.18717 0.282597 3.2042e-20)
(1.18478 0.269454 -1.58045e-20)
(1.18202 0.256756 0)
(1.17897 0.24433 2.94623e-22)
(1.1752 0.231911 0)
(1.17137 0.220009 -1.46055e-20)
(1.16695 0.208753 7.12775e-20)
(1.16234 0.197828 -7.07702e-20)
(1.15754 0.187112 -4.15468e-20)
(1.15234 0.176471 1.09048e-19)
(1.14689 0.16605 -2.70539e-20)
(1.13895 0.155731 -1.32776e-20)
(1.12758 0.145866 1.97825e-20)
(1.11595 0.137209 -1.27059e-20)
(1.10566 0.129811 1.89622e-20)
(1.1045 0.12498 0)
(0.550882 0.784877 -7.23461e-21)
(0.667207 0.860594 0)
(0.78473 0.917286 3.60194e-23)
(0.89856 0.96998 -3.64348e-23)
(1.00369 1.00202 3.77184e-20)
(1.0983 1.00969 3.06107e-20)
(1.17843 0.997066 -5.80324e-20)
(1.2456 0.968066 1.65747e-20)
(1.29992 0.926181 7.81776e-20)
(1.34041 0.878121 -4.2653e-20)
(1.37002 0.825652 0)
(1.3899 0.771195 -7.68688e-20)
(1.40073 0.719858 5.13984e-20)
(1.40608 0.672317 2.74933e-20)
(1.40746 0.62691 -2.74383e-20)
(1.40616 0.585611 0)
(1.40325 0.549168 2.69828e-20)
(1.3993 0.51587 0)
(1.39462 0.484708 1.02495e-19)
(1.38965 0.456107 -1.53354e-19)
(1.38469 0.430506 0)
(1.37961 0.40687 1.23568e-19)
(1.37441 0.384356 -9.81908e-20)
(1.36894 0.362689 0)
(1.36358 0.342697 -3.52601e-20)
(1.35824 0.324316 0)
(1.35272 0.306646 0)
(1.34702 0.28951 3.36973e-20)
(1.34102 0.272799 0)
(1.33505 0.257141 -3.27165e-20)
(1.32907 0.24252 4.33099e-20)
(1.32292 0.228317 -4.21872e-20)
(1.31655 0.214409 3.145e-20)
(1.30992 0.200744 -2.07418e-20)
(1.30303 0.187553 0)
(1.29591 0.175016 -3.03225e-20)
(1.28858 0.163588 1.99935e-20)
(1.28134 0.153566 0)
(1.2747 0.144449 -4.91443e-21)
(1.26953 0.136618 9.6225e-21)
(0.566559 0.713212 1.77911e-21)
(0.622111 0.775368 -5.60617e-22)
(0.690505 0.826999 1.52466e-21)
(0.767401 0.866291 1.10085e-21)
(0.847841 0.89312 -1.14717e-21)
(0.930307 0.908504 -1.70424e-20)
(1.00834 0.911925 2.13368e-20)
(1.08264 0.903638 0)
(1.15014 0.884879 -2.86518e-20)
(1.20733 0.857678 2.62165e-20)
(1.25651 0.823355 3.2258e-20)
(1.29719 0.784175 -1.7725e-21)
(1.32795 0.743713 0)
(1.35136 0.702879 7.18153e-20)
(1.36921 0.661817 -3.74895e-20)
(1.38162 0.622998 0)
(1.38963 0.587422 0)
(1.39463 0.554077 0)
(1.39738 0.522499 -1.8526e-20)
(1.39833 0.493301 1.96375e-20)
(1.39793 0.466826 0)
(1.39657 0.442169 1.82348e-20)
(1.39447 0.418692 0)
(1.39173 0.396242 0)
(1.38855 0.3755 3.63469e-20)
(1.38502 0.356243 -7.14465e-20)
(1.3811 0.337704 7.14788e-20)
(1.37686 0.319807 1.70591e-20)
(1.37229 0.302487 -3.49279e-20)
(1.36755 0.286241 -2.55333e-20)
(1.36264 0.270939 0)
(1.35748 0.256064 1.64034e-20)
(1.35206 0.241584 0)
(1.34638 0.227486 3.05007e-22)
(1.3405 0.213983 -2.40547e-20)
(1.33435 0.20112 1.61685e-20)
(1.32788 0.18887 0)
(1.32136 0.177332 0)
(1.31506 0.166308 -3.86018e-21)
(1.30943 0.155449 -4.05881e-21)
(0.642824 0.639891 3.15883e-21)
(0.681132 0.685952 7.02378e-22)
(0.725068 0.728892 -1.46979e-21)
(0.77536 0.765936 -8.99734e-24)
(0.830853 0.79449 3.88063e-21)
(0.890753 0.814203 0)
(0.951193 0.824328 -9.02313e-21)
(1.01142 0.82567 0)
(1.06987 0.818683 -1.69042e-20)
(1.12309 0.804291 -3.32348e-21)
(1.17196 0.783373 -2.15231e-20)
(1.2156 0.757113 2.05871e-20)
(1.25182 0.727835 -2.61376e-20)
(1.28184 0.696379 -5.29582e-20)
(1.30699 0.663071 -2.78818e-20)
(1.32668 0.629952 2.87643e-20)
(1.34144 0.598158 -2.71044e-20)
(1.35268 0.567299 0)
(1.36115 0.537299 -1.28524e-20)
(1.36713 0.508938 -5.8079e-20)
(1.37101 0.48271 5.82711e-20)
(1.37338 0.457964 -1.49453e-20)
(1.37459 0.434214 0)
(1.37481 0.411383 0)
(1.37417 0.390145 4.22275e-20)
(1.37285 0.370325 -5.68481e-20)
(1.37095 0.35122 5.59252e-20)
(1.36853 0.332756 -5.73488e-22)
(1.36564 0.314874 -1.10405e-19)
(1.36238 0.298047 6.90374e-20)
(1.35883 0.28217 -2.68978e-20)
(1.35493 0.266753 -1.34192e-20)
(1.3507 0.251765 5.31825e-20)
(1.34614 0.237186 -1.97453e-20)
(1.34134 0.223228 6.67053e-21)
(1.33634 0.209938 -6.33937e-21)
(1.3311 0.197157 -6.28592e-21)
(1.32571 0.184871 0)
(1.32029 0.173022 3.11922e-21)
(1.31512 0.161608 -3.24782e-21)
(0.684603 0.593563 -1.3905e-21)
(0.712259 0.630019 -1.87024e-21)
(0.743966 0.665702 -1.18969e-22)
(0.780657 0.698787 -5.43303e-22)
(0.822338 0.726852 -1.20898e-21)
(0.868906 0.748974 0)
(0.917747 0.763499 3.76216e-21)
(0.968187 0.770673 3.54161e-21)
(1.01885 0.770694 0)
(1.0668 0.763785 1.08954e-20)
(1.11254 0.750724 1.27008e-20)
(1.15513 0.732371 0)
(1.19223 0.710244 -1.86592e-20)
(1.2245 0.685129 1.98601e-20)
(1.25293 0.657485 0)
(1.27651 0.628976 -3.92391e-20)
(1.29534 0.600679 1.07046e-19)
(1.31064 0.572499 5.02409e-22)
(1.32308 0.544538 -2.09998e-20)
(1.33272 0.517613 0)
(1.33984 0.492296 0)
(1.3451 0.468128 0)
(1.34893 0.444751 2.2103e-20)
(1.35152 0.42216 0)
(1.35294 0.401015 0)
(1.35341 0.381172 0)
(1.35313 0.362003 3.39237e-20)
(1.3522 0.34345 -4.51228e-20)
(1.35068 0.325475 5.52394e-20)
(1.34864 0.308526 -3.37175e-20)
(1.34616 0.292494 0)
(1.34327 0.276922 0)
(1.33999 0.261788 -1.09602e-20)
(1.33634 0.24708 3.24819e-20)
(1.33239 0.232993 -2.47784e-22)
(1.32822 0.219557 -2.64357e-20)
(1.3238 0.206567 1.59538e-20)
(1.31915 0.193967 0)
(1.31432 0.181755 0)
(1.30941 0.169977 -5.23325e-21)
(0.721701 0.557013 0)
(0.743161 0.586354 1.36706e-21)
(0.767054 0.615789 1.22021e-21)
(0.794525 0.644275 5.21317e-22)
(0.826172 0.670023 -1.48952e-21)
(0.862426 0.692216 2.8495e-21)
(0.901759 0.708908 2.10407e-21)
(0.943631 0.719953 7.82671e-21)
(0.987047 0.725066 1.23664e-21)
(1.0295 0.723918 -1.63728e-20)
(1.07119 0.717134 -4.94434e-22)
(1.11122 0.70524 -3.3098e-20)
(1.14731 0.689165 4.87806e-20)
(1.17976 0.669641 -2.58501e-20)
(1.20928 0.647166 2.94239e-20)
(1.2347 0.623052 -2.82117e-20)
(1.25583 0.59828 0)
(1.27368 0.572957 0)
(1.28878 0.547288 0)
(1.30103 0.522082 0)
(1.31059 0.497957 -1.85107e-20)
(1.3181 0.474625 -1.74344e-20)
(1.32403 0.451845 5.37911e-20)
(1.32854 0.429666 -3.64357e-20)
(1.33166 0.408741 0)
(1.33363 0.388979 1.77493e-20)
(1.33472 0.369827 -2.70309e-20)
(1.33504 0.351245 3.66538e-20)
(1.33465 0.33321 -6.32404e-20)
(1.33363 0.316151 1.82582e-20)
(1.33205 0.299973 -3.58217e-20)
(1.33 0.284252 3.60123e-20)
(1.32749 0.268967 -4.21329e-22)
(1.32457 0.254105 9.0733e-21)
(1.3213 0.23985 0)
(1.31775 0.226228 0)
(1.31392 0.213032 -8.65391e-21)
(1.30982 0.200197 8.7008e-21)
(1.30546 0.187746 0)
(1.30092 0.175757 -4.1585e-21)
(0.750459 0.527933 7.67722e-22)
(0.768098 0.552187 -8.88174e-22)
(0.78733 0.576775 -1.75278e-22)
(0.809084 0.601081 1.06136e-23)
(0.83406 0.623863 -1.36422e-21)
(0.862904 0.644605 -2.86624e-21)
(0.894829 0.661525 -2.71473e-21)
(0.929564 0.674355 -9.5084e-22)
(0.966507 0.682563 0)
(1.00364 0.685424 0)
(1.04103 0.683367 6.04854e-21)
(1.07786 0.67662 0)
(1.11205 0.665607 0)
(1.14363 0.650952 -2.03215e-20)
(1.1731 0.633144 1.06765e-20)
(1.19922 0.613167 -2.22391e-20)
(1.2216 0.591877 1.24109e-20)
(1.24105 0.569513 0)
(1.25796 0.546341 1.27622e-20)
(1.27212 0.52312 1.45563e-20)
(1.28355 0.500484 -2.92129e-20)
(1.29287 0.478287 4.37531e-20)
(1.30051 0.456388 1.35004e-22)
(1.30664 0.434883 -2.93961e-20)
(1.31121 0.414415 1.53133e-20)
(1.31448 0.394944 -2.98947e-20)
(1.31676 0.375997 -2.99671e-20)
(1.31817 0.357553 -1.45957e-20)
(1.31879 0.339606 1.539e-20)
(1.31865 0.322571 -3.67482e-20)
(1.31787 0.30637 5.95905e-20)
(1.31655 0.290608 -2.55174e-22)
(1.31472 0.27527 -5.94047e-20)
(1.31242 0.260345 7.62134e-21)
(1.30972 0.24601 0)
(1.30669 0.232288 2.16954e-20)
(1.30334 0.218977 -7.52197e-21)
(1.29966 0.206014 0)
(1.29569 0.193432 3.57076e-21)
(1.29143 0.181315 3.88119e-21)
(0.774258 0.503828 -8.47585e-22)
(0.789237 0.524277 2.28779e-22)
(0.805313 0.545107 1.89547e-22)
(0.823227 0.565926 2.88496e-24)
(0.843623 0.585848 1.78074e-22)
(0.867155 0.604596 2.53527e-21)
(0.893452 0.620684 -1.35204e-21)
(0.922435 0.633872 2.55638e-21)
(0.953819 0.643586 -2.66819e-21)
(0.986053 0.648916 0)
(1.01919 0.650137 3.48322e-21)
(1.05255 0.647255 -1.1979e-20)
(1.08429 0.640298 6.28807e-21)
(1.11429 0.629755 -2.21629e-20)
(1.14291 0.616058 2.58874e-20)
(1.16889 0.59988 -2.59505e-20)
(1.19172 0.581936 2.86296e-20)
(1.21203 0.562535 0)
(1.23009 0.541966 -1.11016e-20)
(1.24558 0.520912 1.15113e-20)
(1.25843 0.499988 -1.18355e-20)
(1.26918 0.479164 2.3311e-20)
(1.27822 0.458385 -4.73634e-20)
(1.28571 0.437783 2.39325e-20)
(1.29155 0.41798 1.26242e-20)
(1.29597 0.398986 1.26751e-20)
(1.29932 0.380408 -2.46953e-20)
(1.30172 0.362248 4.97926e-20)
(1.30325 0.344516 0)
(1.30393 0.327614 3.77339e-20)
(1.30389 0.311483 -3.70939e-20)
(1.30324 0.295763 2.47969e-20)
(1.30203 0.280444 -1.85908e-20)
(1.30031 0.265521 6.35764e-21)
(1.29813 0.251162 6.03678e-21)
(1.29556 0.237393 -2.97067e-22)
(1.29263 0.224022 -6.29066e-21)
(1.28934 0.210992 0)
(1.28571 0.19834 -3.01875e-21)
(1.28175 0.186152 3.17145e-21)
(0.794096 0.483346 0)
(0.807163 0.500879 0)
(0.821023 0.518767 -1.51673e-21)
(0.836263 0.536747 4.13048e-22)
(0.853439 0.554156 2.24439e-22)
(0.873139 0.570871 -2.32734e-21)
(0.895207 0.585684 3.09111e-21)
(0.919678 0.598431 0)
(0.946473 0.608593 0)
(0.974432 0.61523 -6.20726e-21)
(1.00362 0.618526 -8.84675e-21)
(1.03354 0.61835 -1.11881e-23)
(1.0626 0.61446 1.57478e-20)
(1.0906 0.607211 -3.37342e-21)
(1.11782 0.596962 -1.03056e-20)
(1.14306 0.58412 0)
(1.16572 0.569244 0)
(1.18628 0.552668 0)
(1.20492 0.534672 0)
(1.22124 0.515847 -1.78772e-20)
(1.23508 0.496764 1.81029e-20)
(1.2469 0.47748 2.81008e-20)
(1.25706 0.458005 -3.87702e-20)
(1.26566 0.438496 1.01103e-20)
(1.27257 0.419542 0)
(1.278 0.401201 -2.03847e-20)
(1.28231 0.383155 2.05604e-20)
(1.28561 0.365427 -1.072e-20)
(1.28797 0.348047 0)
(1.28941 0.331399 -1.0729e-20)
(1.29005 0.315447 1.08854e-20)
(1.29004 0.299868 4.19988e-20)
(1.28942 0.284658 -4.20471e-20)
(1.28823 0.269817 2.10689e-20)
(1.28654 0.255507 -5.38028e-21)
(1.28441 0.241761 -2.59896e-20)
(1.28189 0.228398 1.0488e-20)
(1.27896 0.215365 5.17378e-21)
(1.27565 0.202704 -7.7763e-21)
(1.27197 0.190495 2.69648e-21)
(0.810926 0.465601 0)
(0.82254 0.48084 0)
(0.834757 0.496387 9.0732e-22)
(0.848048 0.512054 -3.91324e-22)
(0.86288 0.527329 1.28945e-22)
(0.879761 0.542174 1.33921e-21)
(0.898639 0.555609 -2.28257e-21)
(0.919601 0.56754 -1.35297e-21)
(0.942688 0.577532 4.39089e-21)
(0.967035 0.584704 -4.68057e-21)
(0.992737 0.589185 -1.03218e-22)
(1.01944 0.590785 8.13392e-23)
(1.04581 0.589101 6.17629e-21)
(1.07165 0.584376 9.38837e-21)
(1.09715 0.576896 1.14472e-20)
(1.12124 0.56686 -1.62193e-22)
(1.14328 0.554677 -1.12372e-20)
(1.16362 0.54067 0)
(1.18236 0.525097 -1.29345e-20)
(1.19908 0.508445 1.36972e-20)
(1.21352 0.491228 -1.51568e-20)
(1.22608 0.47356 7.97796e-21)
(1.23707 0.455494 2.88783e-22)
(1.24654 0.437204 8.75038e-21)
(1.25433 0.419237 -1.66998e-20)
(1.26061 0.401687 0)
(1.26574 0.384309 2.56671e-20)
(1.26983 0.367143 -4.34315e-20)
(1.27294 0.350234 3.51688e-20)
(1.27508 0.333951 -2.69044e-20)
(1.27636 0.31828 -1.77422e-20)
(1.27693 0.302934 1.78844e-20)
(1.27687 0.287917 1.78434e-20)
(1.27619 0.273237 -1.79532e-20)
(1.27497 0.25905 8.91715e-21)
(1.27326 0.245392 2.00146e-22)
(1.27111 0.232099 0)
(1.26854 0.219123 0)
(1.26556 0.206507 4.3343e-21)
(1.26215 0.194327 0)
(0.82538 0.449989 7.09697e-22)
(0.835851 0.463385 1.1834e-22)
(0.846804 0.477039 -1.2023e-22)
(0.858617 0.490811 2.23645e-24)
(0.871686 0.504289 0)
(0.886439 0.517484 -4.92754e-22)
(0.902874 0.529593 7.06506e-22)
(0.921098 0.540575 -7.19227e-22)
(0.941212 0.550076 2.41445e-21)
(0.962565 0.557305 -2.90677e-21)
(0.985273 0.562369 4.42888e-21)
(1.00909 0.565058 0)
(1.03294 0.564893 -5.66829e-21)
(1.05661 0.562031 1.64814e-21)
(1.08028 0.556699 1.6357e-20)
(1.10297 0.548941 -1.75674e-20)
(1.12408 0.539038 2.89833e-20)
(1.14385 0.527286 -9.99268e-21)
(1.16233 0.513905 1.16312e-20)
(1.17908 0.499285 -1.23223e-20)
(1.19379 0.483872 0)
(1.20679 0.467814 1.3413e-20)
(1.21833 0.451191 1.28219e-20)
(1.22843 0.434182 0)
(1.23689 0.417285 0)
(1.24386 0.400625 1.38647e-20)
(1.24969 0.384015 7.08009e-21)
(1.25446 0.36751 -7.11361e-21)
(1.25823 0.351171 1.45066e-20)
(1.26098 0.335349 2.24553e-20)
(1.26283 0.320048 -1.51813e-20)
(1.26396 0.30502 0)
(1.2644 0.290275 -1.52936e-20)
(1.2642 0.275829 1.53935e-20)
(1.26342 0.261833 7.66508e-21)
(1.26211 0.248328 -6.03642e-23)
(1.26033 0.235165 -7.72565e-21)
(1.2581 0.222302 0)
(1.25543 0.209783 -1.14081e-20)
(1.2523 0.197678 0)
(0.837928 0.436087 -8.45868e-22)
(0.847475 0.447973 8.44335e-22)
(0.85742 0.460072 5.43838e-22)
(0.868075 0.472274 -3.39894e-22)
(0.879774 0.48424 -5.37372e-24)
(0.89288 0.496003 4.53371e-22)
(0.907409 0.506901 8.05016e-22)
(0.923473 0.516924 -1.26573e-21)
(0.941198 0.52579 -2.84946e-22)
(0.960084 0.532803 2.41521e-21)
(0.980258 0.538061 -6.58336e-21)
(1.00156 0.541359 -6.42598e-22)
(1.02311 0.542195 1.45443e-20)
(1.04473 0.54067 -1.02792e-20)
(1.06656 0.536961 -6.64568e-21)
(1.08776 0.531004 7.96413e-21)
(1.10776 0.522983 -1.57404e-20)
(1.12673 0.513152 -8.03962e-21)
(1.14469 0.501694 1.86139e-20)
(1.16119 0.488912 -1.89128e-20)
(1.1759 0.475181 0)
(1.18908 0.460666 0)
(1.20092 0.44546 -8.92064e-22)
(1.21143 0.429737 0)
(1.22038 0.413946 0)
(1.22787 0.398229 -1.25968e-20)
(1.23425 0.382452 -1.20056e-20)
(1.23957 0.36668 -1.22366e-20)
(1.24389 0.350985 1.19907e-20)
(1.24718 0.335696 -7.03435e-21)
(1.24955 0.32084 -3.5869e-22)
(1.25116 0.3062 1.31329e-20)
(1.25207 0.291795 0)
(1.25231 0.277646 1.96609e-20)
(1.25193 0.263902 -1.33298e-20)
(1.251 0.250608 -1.31201e-20)
(1.24957 0.23763 6.68739e-21)
(1.24766 0.224931 -3.31496e-21)
(1.24529 0.212556 1.01641e-20)
(1.24243 0.20057 0)
(0.848922 0.423582 5.60655e-22)
(0.857702 0.434214 -3.44255e-22)
(0.866823 0.445016 -1.31201e-22)
(0.876544 0.455904 2.98955e-22)
(0.887149 0.46659 2.55376e-23)
(0.898946 0.477119 2.44325e-22)
(0.911959 0.486934 -9.96488e-22)
(0.926295 0.496048 2.18765e-21)
(0.942083 0.504236 -3.14476e-21)
(0.958933 0.510889 -2.22125e-21)
(0.976976 0.516101 2.79121e-21)
(0.996111 0.519686 -3.47137e-21)
(1.01562 0.521152 7.21625e-21)
(1.03534 0.520558 4.74269e-21)
(1.05542 0.518049 1.02441e-20)
(1.07513 0.513492 6.17072e-22)
(1.09394 0.506991 -6.73858e-21)
(1.11198 0.498765 2.83787e-20)
(1.12924 0.488957 -3.72811e-20)
(1.14529 0.477797 3.22623e-20)
(1.15978 0.465594 -8.53691e-21)
(1.17292 0.452514 0)
(1.18486 0.438655 -7.4777e-22)
(1.19559 0.424182 0)
(1.20484 0.40949 0)
(1.21272 0.394735 0)
(1.21951 0.379822 7.18019e-22)
(1.22526 0.364824 3.29137e-20)
(1.23003 0.349819 -3.3198e-20)
(1.23377 0.335118 -3.47381e-22)
(1.23657 0.320761 -2.2821e-20)
(1.23861 0.306565 1.13407e-20)
(1.23993 0.292555 -1.11498e-20)
(1.24057 0.278757 -1.7413e-20)
(1.24056 0.265317 -5.62153e-21)
(1.23997 0.252284 1.15881e-20)
(1.23887 0.239537 0)
(1.23726 0.227048 -5.65728e-21)
(1.23518 0.21486 -7.09203e-21)
(1.23258 0.203033 1.48754e-21)
(0.858632 0.412241 5.06657e-22)
(0.866762 0.421816 0)
(0.875194 0.431525 -1.01017e-21)
(0.884143 0.4413 2.69727e-22)
(0.893853 0.450896 8.21116e-24)
(0.904585 0.460359 2.64593e-23)
(0.916368 0.469217 0)
(0.929297 0.477496 -9.46785e-22)
(0.943498 0.485014 1.36251e-21)
(0.958659 0.491241 -1.8976e-21)
(0.974908 0.496269 -2.4533e-21)
(0.992183 0.499932 -4.43891e-22)
(1.00989 0.501765 -4.21395e-22)
(1.02791 0.501804 0)
(1.04637 0.500166 -1.33327e-20)
(1.06464 0.496679 1.41338e-20)
(1.08225 0.491391 0)
(1.0993 0.484483 -1.16783e-20)
(1.11575 0.47607 6.62042e-21)
(1.13121 0.466316 -1.39193e-20)
(1.14533 0.455473 6.55639e-21)
(1.15827 0.443699 0)
(1.17014 0.431092 7.90007e-21)
(1.18092 0.417801 -8.3523e-21)
(1.19033 0.404175 0)
(1.19844 0.39037 -1.78943e-20)
(1.20551 0.376325 1.86912e-20)
(1.21159 0.362116 9.69884e-21)
(1.21671 0.347827 -1.88562e-20)
(1.22081 0.333748 0)
(1.22398 0.319929 2.87264e-22)
(1.22638 0.306217 -1.94252e-20)
(1.22805 0.292643 1.0248e-20)
(1.22903 0.279239 0)
(1.22936 0.266144 5.1801e-21)
(1.22908 0.253412 -5.19684e-21)
(1.22828 0.240937 4.93639e-21)
(1.22695 0.228696 5.21676e-21)
(1.22514 0.216731 1.01578e-20)
(1.22278 0.2051 5.03181e-21)
(0.867265 0.401884 0)
(0.874837 0.410558 0)
(0.88268 0.419334 2.91481e-23)
(0.890979 0.428159 -4.89118e-22)
(0.89994 0.436818 5.03547e-24)
(0.90979 0.445358 1.82868e-22)
(0.920556 0.453374 0)
(0.932322 0.460897 0)
(0.945205 0.46778 1.22366e-21)
(0.958952 0.473561 -1.25369e-21)
(0.973683 0.478329 4.52705e-22)
(0.989365 0.481938 -2.01088e-21)
(1.00551 0.483959 0)
(1.022 0.484413 0)
(1.03898 0.483396 6.72867e-21)
(1.0559 0.480719 -7.65761e-21)
(1.07234 0.476388 7.42338e-22)
(1.08838 0.470554 5.86681e-21)
(1.10398 0.463305 -1.02894e-20)
(1.11876 0.454755 0)
(1.13241 0.445106 5.91089e-21)
(1.14502 0.434503 6.25292e-21)
(1.1567 0.423038 0)
(1.1674 0.410846 7.03867e-21)
(1.17684 0.398229 -1.46554e-20)
(1.18506 0.385343 0)
(1.19231 0.372149 8.1524e-21)
(1.19861 0.358726 -7.88204e-21)
(1.20398 0.345159 2.43165e-20)
(1.20836 0.331716 0)
(1.21182 0.318458 1.70043e-20)
(1.21451 0.305258 8.86353e-21)
(1.21648 0.292149 8.4496e-21)
(1.21777 0.279169 -8.73947e-21)
(1.21838 0.266452 8.82556e-21)
(1.21838 0.254055 0)
(1.21784 0.241884 -4.5716e-21)
(1.21677 0.229922 0)
(1.21521 0.218213 -4.58222e-21)
(1.21308 0.206808 -4.63939e-21)
(0.874988 0.392371 3.09852e-22)
(0.882072 0.400269 -4.28363e-22)
(0.889406 0.408241 8.90151e-22)
(0.897145 0.416246 2.24875e-22)
(0.905469 0.424094 -3.50091e-23)
(0.914575 0.431831 -3.07522e-22)
(0.924484 0.439105 1.39114e-22)
(0.935273 0.445951 -1.19006e-21)
(0.94705 0.452244 -6.84421e-22)
(0.959601 0.457585 -1.05912e-21)
(0.97304 0.462056 2.94638e-22)
(0.98735 0.465532 4.02944e-21)
(1.00212 0.467621 -4.13261e-21)
(1.01727 0.468334 -5.5252e-22)
(1.03291 0.467754 -6.4773e-22)
(1.04858 0.465683 1.42235e-20)
(1.06391 0.462102 -7.17002e-21)
(1.07896 0.457137 7.99292e-21)
(1.09369 0.450853 -9.36701e-21)
(1.10776 0.443325 7.17257e-23)
(1.12086 0.434712 -5.48669e-21)
(1.13307 0.425146 5.56549e-21)
(1.14446 0.414712 -1.74967e-22)
(1.15497 0.403526 0)
(1.16434 0.391851 0)
(1.17258 0.379836 -1.28218e-20)
(1.1799 0.367462 -6.61514e-21)
(1.18633 0.354806 -6.80169e-21)
(1.19187 0.341952 -4.56065e-22)
(1.19645 0.329149 -2.18065e-20)
(1.20013 0.316463 7.13064e-21)
(1.20306 0.303788 0)
(1.20528 0.291163 -1.54699e-20)
(1.20681 0.278628 1.51515e-20)
(1.20767 0.266312 0)
(1.20791 0.254274 7.77319e-21)
(1.20761 0.242433 -3.94386e-21)
(1.20677 0.230777 -7.84986e-21)
(1.20543 0.219348 5.90245e-21)
(1.20351 0.208195 -5.8508e-21)
(0.881933 0.383588 0)
(0.888587 0.390811 0)
(0.895472 0.398085 -6.81492e-22)
(0.902723 0.405377 0)
(0.910497 0.41252 0)
(0.918963 0.419554 -1.15638e-22)
(0.928141 0.426173 1.18544e-22)
(0.938099 0.432411 1.12088e-21)
(0.948932 0.438166 1.61728e-21)
(0.960463 0.443086 3.10943e-21)
(0.972793 0.447248 4.01406e-21)
(0.985916 0.450545 3.44134e-21)
(0.999488 0.452622 -3.09473e-21)
(1.01344 0.453485 1.73106e-22)
(1.02788 0.453204 -4.78781e-21)
(1.04241 0.451585 1.16322e-20)
(1.0567 0.44859 -6.17238e-21)
(1.0708 0.444325 6.85033e-21)
(1.08468 0.438836 0)
(1.09802 0.432171 1.74854e-20)
(1.11054 0.424452 -1.75326e-20)
(1.12229 0.415799 -9.27249e-21)
(1.13332 0.406283 -2.03742e-20)
(1.14357 0.39601 -5.32011e-22)
(1.15278 0.385204 -3.21748e-22)
(1.16095 0.374007 2.3329e-20)
(1.16827 0.362412 6.16536e-21)
(1.17475 0.350492 1.82212e-20)
(1.18039 0.338333 -1.86344e-20)
(1.1851 0.32616 6.62751e-21)
(1.18894 0.314045 1.30653e-20)
(1.19205 0.301901 -1.31877e-20)
(1.19446 0.289769 0)
(1.19619 0.277692 -6.97069e-21)
(1.19726 0.265792 0)
(1.19771 0.25413 1.68311e-22)
(1.19761 0.242638 -6.92687e-21)
(1.19697 0.231306 0)
(1.19583 0.220178 6.77275e-21)
(1.1941 0.209298 1.88674e-22)
(0.888208 0.375444 5.95461e-22)
(0.894477 0.382076 -9.01739e-23)
(0.900964 0.388738 1.13155e-22)
(0.907785 0.395407 -1.84063e-24)
(0.915075 0.40193 1.2551e-22)
(0.922985 0.408346 1.00101e-22)
(0.931529 0.414385 2.69917e-22)
(0.94077 0.42008 5.14108e-22)
(0.950791 0.425345 7.67082e-22)
(0.96144 0.429869 -2.63433e-21)
(0.97281 0.433726 -2.32759e-21)
(0.984902 0.43682 0)
(0.997421 0.438835 6.57979e-21)
(1.01031 0.43977 7.08876e-23)
(1.02367 0.439689 -8.32874e-21)
(1.03716 0.438404 -5.21012e-21)
(1.05049 0.435866 5.36047e-21)
(1.0637 0.432163 5.88827e-21)
(1.07676 0.427331 -6.46984e-21)
(1.08938 0.421392 0)
(1.1013 0.414442 8.16528e-21)
(1.11255 0.406585 9.15183e-21)
(1.12318 0.397886 1.01361e-21)
(1.13311 0.388435 -2.76629e-20)
(1.14211 0.378424 -9.41e-21)
(1.15015 0.367985 0)
(1.1574 0.357122 1.05293e-20)
(1.16386 0.345903 -2.17495e-20)
(1.16953 0.33441 1.13728e-20)
(1.17431 0.322851 -3.82344e-22)
(1.17826 0.311298 1.10483e-20)
(1.1815 0.299682 2.29565e-20)
(1.18405 0.288045 -5.75172e-21)
(1.18594 0.27643 0)
(1.18718 0.264955 -5.87902e-21)
(1.1878 0.253682 6.26763e-21)
(1.18788 0.242551 0)
(1.18741 0.231558 5.99108e-21)
(1.18645 0.220745 -7.88026e-21)
(1.18489 0.210154 4.71275e-21)
(0.893902 0.367864 0)
(0.899824 0.373974 0)
(0.905953 0.380098 -2.37257e-22)
(0.912388 0.386216 -1.63196e-24)
(0.919251 0.392192 -1.75323e-22)
(0.92667 0.398062 0)
(0.93466 0.403586 4.85722e-22)
(0.943274 0.408795 -1.62426e-21)
(0.952587 0.413615 0)
(0.962468 0.417772 0)
(0.973 0.421334 0)
(0.984188 0.424218 -2.57948e-21)
(0.995779 0.426138 2.40808e-21)
(1.00773 0.427093 -3.3622e-22)
(1.02012 0.427139 -1.40425e-22)
(1.03267 0.426098 -6.81944e-23)
(1.04511 0.423916 -3.80518e-22)
(1.05748 0.420667 -5.56022e-21)
(1.06976 0.416375 0)
(1.08168 0.411047 0)
(1.093 0.404757 0)
(1.10374 0.397595 2.24529e-20)
(1.11394 0.389618 -1.45241e-20)
(1.12352 0.380904 1.66611e-20)
(1.13226 0.371616 4.58081e-22)
(1.14012 0.361876 -8.95458e-21)
(1.14725 0.351695 9.04466e-21)
(1.15364 0.341136 -9.53973e-21)
(1.15928 0.330279 1.90227e-20)
(1.16409 0.31931 -6.13289e-22)
(1.16809 0.308306 -1.04604e-20)
(1.17142 0.297208 -6.141e-22)
(1.17407 0.286061 -4.78507e-21)
(1.17608 0.274908 1.06009e-20)
(1.17745 0.263861 1.63546e-22)
(1.17821 0.252981 -5.4065e-21)
(1.17843 0.24222 5.42606e-21)
(1.17812 0.231576 -1.64327e-20)
(1.1773 0.221089 3.97386e-21)
(1.17589 0.2108 1.3676e-21)
(0.899086 0.360787 -1.36235e-22)
(0.904694 0.366433 2.6246e-22)
(0.910498 0.372078 8.783e-22)
(0.916587 0.377708 2.60156e-22)
(0.923065 0.383199 3.71092e-23)
(0.930047 0.388584 1.64467e-23)
(0.937546 0.393648 -3.16717e-23)
(0.945607 0.398421 -3.78273e-22)
(0.954298 0.402838 1.61758e-21)
(0.963503 0.406657 -2.50951e-21)
(0.973298 0.409939 1.64048e-21)
(0.983688 0.412612 2.53197e-22)
(0.994455 0.41442 -4.89909e-21)
(1.00556 0.415359 -5.8043e-21)
(1.01709 0.41548 3.45325e-21)
(1.02878 0.414616 7.57473e-21)
(1.0404 0.412711 4.42657e-21)
(1.052 0.409827 -1.3435e-20)
(1.06354 0.405981 0)
(1.07478 0.401169 0)
(1.08552 0.395445 5.7822e-21)
(1.09575 0.388889 1.30642e-20)
(1.10551 0.38155 -1.3474e-20)
(1.11472 0.373494 -5.65205e-22)
(1.12316 0.364861 -5.02781e-22)
(1.1308 0.355763 -4.46875e-22)
(1.13777 0.346213 7.77286e-21)
(1.14405 0.336274 8.25474e-21)
(1.14962 0.326016 -1.74997e-20)
(1.15441 0.315613 8.20668e-21)
(1.15843 0.305138 9.02274e-21)
(1.16179 0.294545 -4.7287e-22)
(1.16452 0.283878 3.18392e-22)
(1.16661 0.273181 9.42332e-21)
(1.16807 0.262561 -4.75947e-21)
(1.16895 0.252077 -9.61229e-21)
(1.16928 0.241689 4.84929e-21)
(1.1691 0.231399 5.01478e-21)
(1.16841 0.221246 -2.72485e-22)
(1.16713 0.211266 0)
(0.903824 0.354159 9.89679e-22)
(0.909143 0.359391 -1.71069e-22)
(0.914652 0.364608 -4.37928e-22)
(0.920424 0.369803 -2.308e-22)
(0.926555 0.374862 -1.77988e-23)
(0.933145 0.379813 -1.38402e-22)
(0.940204 0.384466 -6.526e-22)
(0.947773 0.388847 6.57659e-22)
(0.95591 0.3929 0)
(0.964516 0.396407 1.24478e-21)
(0.973656 0.399427 -1.55829e-21)
(0.983339 0.401895 3.89457e-21)
(0.993372 0.403581 -6.50056e-21)
(1.00372 0.40448 2.56669e-21)
(1.01447 0.404639 6.17328e-21)
(1.02538 0.403902 -9.73311e-21)
(1.03626 0.402213 0)
(1.04713 0.399624 4.2541e-21)
(1.05798 0.396147 0)
(1.06859 0.39177 4.71988e-21)
(1.07875 0.386533 -1.62773e-20)
(1.08848 0.380506 1.09284e-20)
(1.09779 0.373729 -1.19579e-20)
(1.10662 0.366261 0)
(1.11475 0.35822 -6.41439e-21)
(1.12214 0.349709 0)
(1.12892 0.340744 -1.44741e-20)
(1.13505 0.331381 1.46191e-20)
(1.14052 0.321688 0)
(1.14525 0.311822 -1.59535e-20)
(1.14925 0.301855 -8.99611e-23)
(1.15263 0.29175 7.87256e-21)
(1.15538 0.281551 -8.24813e-21)
(1.15753 0.271302 0)
(1.15906 0.261103 0)
(1.16002 0.251013 0)
(1.16045 0.240999 1.27263e-20)
(1.16036 0.231064 -4.35814e-21)
(1.15979 0.221248 -2.44932e-22)
(1.15862 0.211584 0)
(0.908165 0.347936 -2.25889e-22)
(0.91322 0.352796 -1.53538e-22)
(0.918456 0.35763 3.67087e-22)
(0.92394 0.362435 -2.07106e-22)
(0.929754 0.367106 1.33939e-23)
(0.935988 0.371669 -1.56348e-22)
(0.94265 0.375952 1.3725e-22)
(0.949776 0.379979 -4.50642e-22)
(0.957419 0.383702 1.47886e-21)
(0.965488 0.386924 1.03324e-21)
(0.974044 0.3897 0)
(0.983094 0.391971 1.76473e-21)
(0.992468 0.393532 2.1443e-22)
(1.00214 0.394377 -2.45819e-21)
(1.01218 0.394547 4.85262e-21)
(1.02238 0.393899 0)
(1.03258 0.392378 0)
(1.04279 0.39003 1.45203e-20)
(1.05298 0.38686 5.95955e-22)
(1.06299 0.382852 -4.44846e-21)
(1.07261 0.378034 9.00328e-21)
(1.08185 0.372468 -9.61642e-21)
(1.09072 0.366189 -4.76131e-21)
(1.09915 0.359245 -1.13499e-20)
(1.10695 0.35174 1.7575e-20)
(1.11409 0.343765 1.23958e-20)
(1.12065 0.335338 -3.15374e-20)
(1.12661 0.326511 1.93681e-20)
(1.13195 0.317348 1.36491e-20)
(1.13659 0.30799 -7.04578e-21)
(1.14055 0.298508 0)
(1.1439 0.288872 7.05548e-21)
(1.14666 0.279126 0)
(1.14883 0.269313 0)
(1.15041 0.259526 7.59259e-21)
(1.15143 0.249826 -1.51287e-20)
(1.15193 0.240183 -1.54855e-20)
(1.15192 0.230603 -7.57349e-21)
(1.15144 0.221125 -6.8522e-21)
(1.15037 0.211779 -9.60265e-22)
(0.912155 0.34208 0)
(0.916965 0.346604 0)
(0.92195 0.351094 -6.82143e-22)
(0.927167 0.355547 1.28837e-23)
(0.93269 0.359869 3.28107e-23)
(0.938599 0.364083 1.36804e-22)
(0.944901 0.368032 -3.10259e-22)
(0.951627 0.37174 0)
(0.958823 0.375163 -7.4962e-22)
(0.966409 0.378124 -2.83586e-21)
(0.974438 0.380673 2.30591e-21)
(0.982919 0.382759 2.80537e-21)
(0.9917 0.384195 0)
(1.00076 0.384976 -3.87573e-21)
(1.01015 0.385139 -9.27623e-21)
(1.01972 0.384553 9.95983e-21)
(1.02928 0.383164 4.47287e-22)
(1.03887 0.381011 -1.94593e-20)
(1.04847 0.378098 7.23175e-21)
(1.0579 0.374404 -2.31937e-20)
(1.067 0.369949 -5.48251e-22)
(1.07577 0.364787 5.82308e-22)
(1.0842 0.358948 6.13083e-22)
(1.09225 0.352474 1.00901e-20)
(1.09972 0.345452 3.80887e-22)
(1.10658 0.337966 -1.02081e-20)
(1.11291 0.330034 -5.77771e-21)
(1.11868 0.321705 -6.32777e-21)
(1.12388 0.313037 1.1938e-20)
(1.12841 0.304159 -6.41687e-21)
(1.13229 0.295138 0)
(1.1356 0.285952 -1.75194e-22)
(1.13834 0.276642 -1.96278e-20)
(1.14051 0.267251 -2.9634e-23)
(1.14211 0.257868 6.7862e-21)
(1.14317 0.248549 7.07628e-21)
(1.14372 0.239272 7.13555e-21)
(1.14378 0.230045 7.18408e-21)
(1.14337 0.220903 1.04251e-20)
(1.14239 0.211876 0)
(0.915831 0.336559 3.46879e-23)
(0.920414 0.340779 -4.22618e-22)
(0.925164 0.344956 3.17078e-22)
(0.930134 0.349091 -1.80754e-22)
(0.935388 0.353098 -6.2321e-24)
(0.941 0.356996 0)
(0.946971 0.360644 2.97385e-22)
(0.953332 0.364063 0)
(0.960122 0.367213 -1.26676e-21)
(0.96727 0.369936 1.76895e-21)
(0.974824 0.372275 -2.20424e-21)
(0.982789 0.374187 -2.67968e-21)
(0.991032 0.375501 -2.99176e-21)
(0.999533 0.376213 -1.05895e-22)
(1.00835 0.376357 8.07005e-21)
(1.01732 0.375811 7.35889e-23)
(1.02631 0.374526 4.23715e-22)
(1.03532 0.372534 0)
(1.04436 0.369837 1.29532e-20)
(1.05326 0.366411 -6.5685e-21)
(1.06186 0.362272 7.55775e-21)
(1.07018 0.357465 -7.56476e-21)
(1.07819 0.352016 2.48787e-20)
(1.08586 0.345962 0)
(1.093 0.339378 0)
(1.09958 0.332338 6.05307e-22)
(1.10567 0.324863 -1.04309e-20)
(1.11124 0.316995 0)
(1.11627 0.308789 -4.09047e-22)
(1.12067 0.300362 1.10243e-20)
(1.12446 0.291779 -3.84775e-22)
(1.12771 0.283022 1.1554e-20)
(1.1304 0.274132 6.10356e-21)
(1.13256 0.265149 -1.18662e-20)
(1.13416 0.256157 -1.33859e-23)
(1.13524 0.247212 6.16107e-21)
(1.13582 0.238295 0)
(1.13593 0.229415 2.97108e-21)
(1.13558 0.220606 -3.32576e-21)
(1.13467 0.211896 -5.94165e-21)
(0.919226 0.331344 6.94864e-23)
(0.923596 0.335288 7.16713e-22)
(0.928127 0.339181 -8.37405e-23)
(0.932867 0.343028 2.98506e-22)
(0.937873 0.346749 6.88465e-23)
(0.943208 0.35036 -2.12755e-23)
(0.948876 0.353735 5.09476e-22)
(0.954902 0.356891 0)
(0.961322 0.359792 2.35903e-21)
(0.96807 0.362297 0)
(0.975189 0.364443 0)
(0.982686 0.366191 0)
(0.99044 0.367389 5.54659e-21)
(0.998432 0.368031 0)
(1.00671 0.368147 3.22759e-22)
(1.01515 0.367627 -1.23035e-20)
(1.0236 0.366423 8.8939e-21)
(1.03209 0.364564 4.94893e-21)
(1.0406 0.36205 0)
(1.049 0.358855 -5.89752e-21)
(1.05714 0.354991 -6.75347e-21)
(1.06502 0.350498 1.20672e-23)
(1.07263 0.345397 -8.11022e-21)
(1.07992 0.33972 7.30669e-21)
(1.08674 0.333532 8.15368e-21)
(1.09303 0.326901 5.35285e-22)
(1.09888 0.319845 -8.78368e-21)
(1.10423 0.312405 -3.74862e-22)
(1.10909 0.30463 -4.1804e-22)
(1.11335 0.296628 0)