/*--------------------------------*- C++ -*----------------------------------*\
| =========                 |                                                 |
| \\      /  F ield         | OpenFOAM: The Open Source CFD Toolbox           |
|  \\    /   O peration     | Version:  3.0.1                                 |
|   \\  /    A nd           | Web:      www.OpenFOAM.org                      |
|    \\/     M anipulation  |                                                 |
\*---------------------------------------------------------------------------*/
FoamFile
{
    version     2.0;
    format      ascii;
    class       volScalarField;
    location    "500";
    object      nuTilda;
}
// * * * * * * * * * * * * * * * * * * * * * * * * * * * * * * * * * * * * * //

dimensions      [0 2 -1 0 0 0 0];

internalField   nonuniform List<scalar> 
58000
(
0.000798546
0.000707895
0.000629044
0.00057604
0.000540412
0.000504677
0.000478789
0.000459319
0.000443563
0.000433648
0.000427843
0.000423666
0.000420671
0.000420195
0.000419986
0.000420102
0.000420571
0.000421959
0.000423866
0.000425835
0.00042796
0.000430016
0.000432195
0.000434145
0.000435846
0.000437343
0.000438566
0.000439539
0.000440376
0.000440801
0.000440948
0.000440793
0.0004402
0.000439095
0.000437026
0.000433926
0.00043025
0.000426423
0.000422614
0.000420095
0.00304001
0.00273723
0.00241964
0.00211111
0.00185307
0.00163071
0.0014559
0.0013238
0.00121642
0.00113445
0.00107382
0.00102504
0.000984382
0.000955924
0.000934365
0.000916373
0.000901458
0.000890994
0.000883461
0.000876662
0.000871017
0.000863597
0.000856726
0.000850079
0.000842618
0.000834332
0.000825433
0.000816598
0.000808757
0.000800653
0.000792036
0.000782954
0.000773461
0.00076466
0.000754867
0.000743582
0.000731225
0.000718391
0.000705518
0.00069419
0.00530324
0.00495865
0.00456528
0.00413552
0.00374772
0.00339818
0.00309854
0.00285427
0.00264382
0.00247409
0.00234374
0.00223569
0.00214175
0.00207151
0.0020171
0.00197013
0.00192831
0.00189571
0.00187134
0.00185016
0.00183032
0.00180921
0.00179074
0.0017741
0.00175717
0.00173947
0.00172106
0.00170273
0.00168652
0.00166871
0.00164868
0.00162691
0.00160358
0.0015795
0.0015541
0.00152665
0.00149793
0.00146833
0.00143892
0.00141241
0.00753755
0.00717822
0.00674811
0.00627009
0.00581025
0.00537145
0.00498267
0.00464951
0.00434886
0.00409559
0.00389339
0.00372097
0.00356767
0.00344822
0.00335328
0.00326987
0.00319463
0.00313294
0.00308448
0.0030426
0.00300157
0.00296049
0.00292469
0.00289297
0.00286181
0.00282991
0.00279733
0.0027638
0.00273189
0.00269931
0.00266488
0.00262926
0.00259083
0.00255084
0.00250919
0.00246485
0.00241908
0.00237189
0.00232457
0.00227972
0.00974073
0.00938195
0.00894137
0.00844038
0.0079464
0.00746151
0.00700864
0.00661254
0.00624346
0.00592028
0.00565302
0.0054187
0.00520538
0.00503373
0.00489395
0.00476906
0.00465497
0.00455895
0.00448095
0.00441163
0.00434479
0.00427949
0.00422226
0.00417161
0.00412297
0.00407244
0.00402
0.00396776
0.00391862
0.00386964
0.00381774
0.00376291
0.00370549
0.0036472
0.00358688
0.00352302
0.00345626
0.00338854
0.00332045
0.00325439
0.0119136
0.0115608
0.0111215
0.0106135
0.0101052
0.00959305
0.00910716
0.00866716
0.00824857
0.0078731
0.00755242
0.00726453
0.0069969
0.0067752
0.00659072
0.00642348
0.00626905
0.00613634
0.0060265
0.00592606
0.00582975
0.00573675
0.00565473
0.00558198
0.00551022
0.00543748
0.00536366
0.00529118
0.00522205
0.00515258
0.00508113
0.00500591
0.0049272
0.00484765
0.004766
0.00468032
0.004591
0.00450031
0.00440887
0.00431905
0.0140609
0.0137168
0.0132846
0.0127793
0.012268
0.0117452
0.0112399
0.0107742
0.0103211
0.00990516
0.00954401
0.00921365
0.00890063
0.00863337
0.00840687
0.0081989
0.00800563
0.00783543
0.00769052
0.00755791
0.00743094
0.00730867
0.00720005
0.00710128
0.00700481
0.00690794
0.00681071
0.00671424
0.0066233
0.00653171
0.00643687
0.00633936
0.00623768
0.006134
0.00602958
0.00592071
0.00580748
0.00569216
0.00557556
0.00546007
0.0161867
0.0158525
0.0154301
0.0149322
0.0144228
0.0139001
0.0133867
0.0129076
0.0124326
0.0119893
0.0115954
0.0112292
0.010878
0.0105744
0.0103119
0.0100667
0.00983446
0.0096279
0.00944969
0.00928568
0.00912804
0.00897614
0.00883805
0.00871246
0.00859086
0.00846815
0.00834448
0.00822302
0.00810678
0.00799104
0.00787262
0.00775011
0.00762426
0.00749595
0.00736696
0.00723324
0.00709521
0.00695338
0.00680982
0.00666703
0.0182949
0.0179711
0.0175599
0.0170726
0.0165702
0.0160516
0.0155368
0.0150514
0.0145642
0.0141019
0.0136864
0.013294
0.0129112
0.0125751
0.0122805
0.0120022
0.0117361
0.0114962
0.0112865
0.0110927
0.0109046
0.0107214
0.0105539
0.0104013
0.0102519
0.0101021
0.0099522
0.0098037
0.00966229
0.00952143
0.00937763
0.00922926
0.00907723
0.00892277
0.00876784
0.00860793
0.00844313
0.00827393
0.00810251
0.00793137
0.0203883
0.020075
0.0196758
0.0192006
0.0187077
0.0181964
0.0176841
0.017196
0.0167043
0.0162313
0.0158007
0.0153879
0.0149826
0.014621
0.0142994
0.0139924
0.0136961
0.0134256
0.0131854
0.0129605
0.0127426
0.0125309
0.0123347
0.0121535
0.0119774
0.0118002
0.011622
0.0114466
0.0112779
0.0111112
0.0109403
0.0107656
0.0105859
0.0104051
0.0102237
0.0100371
0.00984462
0.00964714
0.00944695
0.00924657
0.0224694
0.0221666
0.0217794
0.0213171
0.0208353
0.0203332
0.0198269
0.0193405
0.0188477
0.0183688
0.0179282
0.0175016
0.0170788
0.0166951
0.01635
0.016018
0.0156951
0.0153973
0.0151299
0.0148774
0.014632
0.0143908
0.0141663
0.0139584
0.0137542
0.0135503
0.0133447
0.0131418
0.0129456
0.0127521
0.0125543
0.0123526
0.012145
0.0119369
0.0117284
0.011515
0.0112938
0.0110672
0.0108375
0.0106072
0.0245403
0.0242476
0.0238724
0.0234232
0.0229532
0.0224616
0.0219632
0.0214813
0.0209901
0.0205086
0.0200605
0.0196256
0.0191906
0.0187909
0.0184275
0.0180746
0.0177285
0.0174062
0.0171138
0.0168355
0.0165621
0.0162931
0.0160419
0.0158061
0.015575
0.0153426
0.0151099
0.0148787
0.0146548
0.0144341
0.014211
0.0139828
0.0137475
0.0135116
0.0132754
0.013034
0.0127842
0.0125284
0.012269
0.0120084
0.0266025
0.0263196
0.0259562
0.0255201
0.0250622
0.0245818
0.0240924
0.0236167
0.0231296
0.0226486
0.022197
0.0217556
0.0213102
0.0208993
0.0205214
0.0201509
0.0197838
0.0194395
0.0191246
0.0188239
0.0185262
0.0182311
0.017953
0.0176902
0.0174312
0.0171709
0.0169105
0.0166538
0.0164036
0.016156
0.0159063
0.0156513
0.0153881
0.0151234
0.0148596
0.0145903
0.0143119
0.0140268
0.0137376
0.0134466
0.0286571
0.0283837
0.0280318
0.0276087
0.0271631
0.0266941
0.0262146
0.0257462
0.0252646
0.0247862
0.0243339
0.023889
0.023437
0.0230166
0.0226261
0.0222401
0.0218576
0.0214952
0.0211596
0.0208357
0.0205149
0.0201951
0.0198891
0.019601
0.0193183
0.0190326
0.0187455
0.0184617
0.0181862
0.017912
0.0176345
0.017353
0.0170626
0.0167698
0.0164776
0.0161803
0.0158734
0.0155591
0.01524
0.0149184
0.0307048
0.0304406
0.0301
0.0296899
0.0292565
0.0287992
0.0283299
0.0278696
0.0273944
0.0269202
0.0264689
0.0260225
0.0255666
0.0251389
0.0247373
0.0243405
0.0239449
0.0235668
0.0232131
0.022868
0.0225223
0.0221797
0.021851
0.0215385
0.0212308
0.0209216
0.0206095
0.0202997
0.0199989
0.0196985
0.0193938
0.0190845
0.0187675
0.0184471
0.0181267
0.0178014
0.0174658
0.0171223
0.0167732
0.0164211
0.0327458
0.0324909
0.0321617
0.0317644
0.0313433
0.0308977
0.0304388
0.0299869
0.0295189
0.0290497
0.0286007
0.0281545
0.0276967
0.0272641
0.0268548
0.0264484
0.0260415
0.0256497
0.02528
0.0249166
0.0245497
0.024184
0.023834
0.0234985
0.023167
0.0228347
0.0224981
0.0221631
0.0218375
0.0215114
0.0211801
0.0208444
0.0205002
0.0201522
0.0198038
0.0194505
0.0190864
0.0187136
0.0183348
0.017952
0.0347809
0.0345353
0.0342173
0.0338327
0.0334239
0.0329899
0.0325416
0.0320984
0.031638
0.0311746
0.0307288
0.0302838
0.0298256
0.0293897
0.0289745
0.0285604
0.0281439
0.0277402
0.0273564
0.0269767
0.0265911
0.0262052
0.0258343
0.0254769
0.0251224
0.0247672
0.0244072
0.0240478
0.0236976
0.0233466
0.0229893
0.0226263
0.0222564
0.0218817
0.0215058
0.0211248
0.0207323
0.0203306
0.019922
0.0195089
0.0368106
0.0365742
0.0362672
0.0358954
0.035499
0.0350764
0.0346386
0.0342042
0.0337516
0.0332945
0.0328526
0.0324098
0.0319521
0.0315143
0.0310947
0.0306743
0.0302496
0.0298356
0.029439
0.0290447
0.0286423
0.0282379
0.0278475
0.0274694
0.0270929
0.0267145
0.0263328
0.02595
0.0255748
0.0252005
0.0248185
0.02443
0.0240344
0.0236332
0.0232302
0.0228217
0.0224012
0.0219707
0.0215328
0.0210895
0.0388352
0.0386077
0.0383117
0.0379526
0.0375695
0.0371574
0.0367298
0.0363043
0.0358598
0.0354093
0.0349718
0.0345319
0.0340757
0.0336369
0.0332139
0.0327884
0.0323567
0.0319337
0.0315258
0.0311181
0.0307005
0.030279
0.0298691
0.0294726
0.0290759
0.0286762
0.0282732
0.027868
0.0274694
0.0270717
0.0266657
0.0262522
0.0258315
0.0254043
0.0249744
0.0245386
0.0240904
0.0236317
0.0231649
0.0226918
0.0408547
0.0406359
0.0403504
0.0400035
0.0396323
0.0392317
0.0388151
0.038399
0.0379626
0.0375189
0.0370863
0.0366498
0.0361959
0.0357569
0.0353315
0.0349017
0.0344642
0.034033
0.0336149
0.0331951
0.0327637
0.0323266
0.0318995
0.0314849
0.0310691
0.0306491
0.0302255
0.0297988
0.0293778
0.0289575
0.028528
0.0280903
0.0276451
0.0271925
0.0267362
0.0262726
0.0257978
0.0253117
0.0248165
0.0243142
0.0428691
0.0426587
0.0423838
0.0420488
0.0416888
0.0412996
0.0408941
0.0404887
0.0400598
0.039623
0.0391958
0.0387632
0.0383122
0.0378738
0.0374468
0.0370136
0.0365709
0.0361325
0.0357049
0.0352739
0.0348297
0.0343784
0.0339355
0.0335039
0.0330698
0.0326304
0.0321869
0.0317397
0.0312973
0.030855
0.0304031
0.0299422
0.0294731
0.0289957
0.0285139
0.0280239
0.0275226
0.0270093
0.0264862
0.025955
0.0448779
0.0446759
0.0444114
0.0440893
0.0437393
0.0433609
0.0429659
0.04257
0.0421499
0.041721
0.0412999
0.0408718
0.0404245
0.0399873
0.0395595
0.0391235
0.0386762
0.0382311
0.0377945
0.0373529
0.0368969
0.0364324
0.0359747
0.0355272
0.0350758
0.0346179
0.0341543
0.0336884
0.0332255
0.0327613
0.0322888
0.0318057
0.0313135
0.0308121
0.0303055
0.0297901
0.0292628
0.0287229
0.0281724
0.027613
0.0468808
0.0466869
0.0464322
0.0461214
0.0457825
0.0454153
0.0450311
0.0446442
0.0442329
0.0438123
0.0433989
0.042975
0.0425328
0.0420967
0.0416696
0.0412309
0.0407795
0.0403279
0.0398826
0.0394307
0.0389636
0.0384868
0.0380153
0.0375528
0.0370854
0.0366103
0.0361285
0.0356442
0.0351618
0.034677
0.0341838
0.033679
0.0331641
0.0326397
0.0321092
0.0315692
0.0310168
0.030451
0.0298736
0.0292865
0.0488775
0.0486916
0.0484467
0.0481465
0.0478185
0.0474626
0.0470902
0.0467113
0.0463085
0.0458959
0.045489
0.0450703
0.0446326
0.0441988
0.0437725
0.0433342
0.0428802
0.0424219
0.0419681
0.041505
0.0410281
0.04054
0.0400556
0.0395788
0.0390966
0.0386057
0.0381071
0.0376052
0.0371041
0.0365998
0.0360864
0.0355604
0.0350228
0.0344768
0.0339236
0.0333599
0.0327831
0.0321921
0.0315887
0.0309745
0.0508671
0.0506894
0.0504551
0.0501643
0.0498468
0.049502
0.0491398
0.04877
0.0483763
0.0479721
0.0475717
0.0471586
0.0467252
0.0462941
0.0458682
0.0454289
0.0449727
0.0445112
0.0440504
0.043577
0.0430898
0.0425907
0.0420939
0.0416026
0.0411079
0.0406026
0.0400881
0.0395696
0.0390508
0.0385278
0.0379952
0.0374491
0.0368904
0.036323
0.0357476
0.0351609
0.0345605
0.033945
0.0333162
0.0326758
0.052849
0.0526791
0.0524539
0.0521735
0.0518669
0.0515341
0.0511808
0.05082
0.0504359
0.0500414
0.0496469
0.0492405
0.0488109
0.0483836
0.0479573
0.0475166
0.0470573
0.0465912
0.0461236
0.0456424
0.0451463
0.0446375
0.0441293
0.0436253
0.0431173
0.0425985
0.0420696
0.0415356
0.0410002
0.0404596
0.0399086
0.0393433
0.0387648
0.0381768
0.03758
0.0369711
0.0363478
0.0357086
0.0350552
0.0343892
0.0548224
0.0546613
0.0544437
0.0541735
0.0538777
0.0535553
0.0532121
0.0528607
0.0524862
0.0521002
0.0517126
0.0513118
0.0508872
0.0504631
0.0500391
0.0495977
0.0491345
0.048663
0.0481875
0.0476999
0.0471963
0.0466787
0.0461604
0.0456446
0.0451229
0.0445923
0.0440503
0.0435021
0.042951
0.0423935
0.0418249
0.0412416
0.0406443
0.0400367
0.0394194
0.0387892
0.0381438
0.0374817
0.0368046
0.0361137
0.0567858
0.056632
0.0564234
0.0561638
0.0558798
0.0555667
0.0552333
0.0548918
0.0545279
0.0541494
0.0537696
0.0533735
0.0529549
0.0525328
0.0521094
0.0516672
0.0512029
0.050727
0.0502442
0.0497497
0.0492389
0.0487135
0.0481861
0.0476598
0.0471266
0.0465841
0.0460296
0.045468
0.0449021
0.0443285
0.0437421
0.0431425
0.0425278
0.0419017
0.0412649
0.0406142
0.0399476
0.0392635
0.0385633
0.0378485
0.0587389
0.0585921
0.0583926
0.0581436
0.0578698
0.057567
0.057244
0.0569122
0.0565575
0.0561874
0.0558143
0.055424
0.0550103
0.0545925
0.0541699
0.0537255
0.0532582
0.0527768
0.0522897
0.0517897
0.0512728
0.0507405
0.050205
0.0496694
0.049126
0.0485726
0.0480065
0.0474323
0.0468527
0.0462642
0.0456619
0.0450462
0.0444146
0.0437708
0.0431153
0.0424451
0.0417581
0.0410527
0.0403305
0.0395925
0.060681
0.0605413
0.0603511
0.0601133
0.0598485
0.059556
0.059244
0.0589228
0.0585761
0.0582151
0.0578477
0.057464
0.057054
0.0566384
0.0562161
0.055772
0.0553021
0.0548158
0.054324
0.0538191
0.0532969
0.0527587
0.0522162
0.0516723
0.0511197
0.0505565
0.0499797
0.0493939
0.0488015
0.0481992
0.0475823
0.0469513
0.0463037
0.045643
0.0449697
0.0442808
0.0435744
0.0428487
0.0421052
0.0413451
0.0626112
0.0624783
0.062298
0.0620691
0.0618143
0.0615331
0.0612326
0.0609198
0.0605819
0.0602288
0.0598681
0.0594904
0.059086
0.0586721
0.0582482
0.057803
0.0573288
0.0568404
0.0563455
0.0558368
0.0553102
0.0547671
0.0542185
0.0536673
0.0531066
0.0525346
0.0519481
0.0513517
0.0507476
0.0501325
0.049502
0.0488567
0.048194
0.0475174
0.0468271
0.0461205
0.0453955
0.0446504
0.0438866
0.0431053
0.0645284
0.0644017
0.0642297
0.0640107
0.0637665
0.0634974
0.0632065
0.0629033
0.0625754
0.0622295
0.0618761
0.0615039
0.0611029
0.0606892
0.060265
0.0598158
0.0593406
0.0588508
0.0583535
0.0578419
0.0573119
0.0567647
0.0562111
0.0556537
0.0550858
0.0545059
0.0539107
0.0533047
0.0526899
0.0520631
0.0514199
0.0507613
0.0500843
0.0493927
0.0486866
0.0479632
0.0472206
0.0464571
0.045674
0.0448724
0.0664318
0.066311
0.0661469
0.0659379
0.0657044
0.0654458
0.0651656
0.0648729
0.0645533
0.0642158
0.0638674
0.0635002
0.0631012
0.0626893
0.0622634
0.0618129
0.0613369
0.0608462
0.0603474
0.0598337
0.0593011
0.0587509
0.0581931
0.0576304
0.0570565
0.0564696
0.0558668
0.0552521
0.0546275
0.0539898
0.0533351
0.052664
0.0519737
0.0512682
0.0505472
0.049808
0.0490488
0.0482679
0.0474664
0.0466456
0.0683207
0.0682055
0.0680493
0.0678504
0.0676283
0.0673792
0.0671098
0.0668256
0.0665155
0.0661847
0.0658422
0.0654772
0.0650812
0.0646691
0.064243
0.0637924
0.0633167
0.062826
0.0623265
0.0618115
0.0612773
0.0607248
0.0601638
0.0595969
0.0590178
0.058425
0.0578153
0.0571929
0.0565595
0.055912
0.0552466
0.054564
0.0538614
0.0531429
0.0524081
0.0516544
0.0508795
0.0500819
0.049263
0.0484241
0.0701941
0.0700842
0.0699355
0.0697474
0.0695343
0.069296
0.0690354
0.068761
0.0684589
0.068137
0.0677981
0.0674351
0.0670397
0.0666285
0.0662033
0.0657538
0.0652794
0.0647896
0.0642901
0.0637747
0.0632396
0.0626858
0.0621226
0.0615523
0.0609691
0.0603713
0.0597557
0.0591264
0.058485
0.0578286
0.0571535
0.0564604
0.0557464
0.0550159
0.0542684
0.0535022
0.0527118
0.0518983
0.051063
0.0502071
0.0720513
0.0719462
0.0718041
0.0716247
0.0714221
0.0711926
0.0709423
0.070676
0.0703834
0.0700656
0.0697311
0.0693695
0.0689763
0.0685673
0.0681441
0.0676967
0.0672244
0.0667363
0.0662377
0.0657227
0.0651876
0.0646332
0.0640686
0.0634961
0.06291
0.0623078
0.0616871
0.0610517
0.0604032
0.0597389
0.0590549
0.0583522
0.0576278
0.0568861
0.0561267
0.0553478
0.0545437
0.0537157
0.0528653
0.0519939
0.0738916
0.0737909
0.0736546
0.0734825
0.0732884
0.073069
0.072827
0.0725706
0.0722834
0.0719718
0.0716398
0.0712811
0.0708913
0.0704856
0.0700652
0.0696208
0.0691515
0.0686658
0.0681689
0.0676549
0.0671205
0.0665664
0.0660012
0.0654274
0.0648404
0.0642339
0.0636085
0.0629679
0.0623133
0.0616419
0.0609501
0.0602387
0.0595047
0.0587526
0.057982
0.0571912
0.0563745
0.0555332
0.054669
0.0537835
0.0757144
0.0756179
0.0754867
0.0753211
0.075134
0.0749225
0.0746894
0.0744394
0.07416
0.0738544
0.0735254
0.0731704
0.0727851
0.0723835
0.0719668
0.071526
0.0710603
0.0705777
0.070083
0.0695708
0.0690377
0.0684845
0.0679194
0.0673449
0.0667564
0.0661475
0.0655187
0.064874
0.0642141
0.0635367
0.0628383
0.062119
0.0613761
0.0606145
0.0598336
0.0590317
0.0582034
0.0573499
0.0564732
0.0555753
0.0775193
0.0774266
0.0773002
0.0771403
0.0769593
0.0767544
0.0765281
0.0762843
0.0760113
0.0757117
0.0753878
0.0750379
0.0746578
0.074261
0.0738486
0.0734121
0.0729505
0.0724715
0.0719797
0.0714699
0.0709387
0.070387
0.0698226
0.0692479
0.0686586
0.0680481
0.0674172
0.0667691
0.0661049
0.0654225
0.0647193
0.0639921
0.063241
0.0624707
0.0616803
0.0608684
0.0600295
0.0591652
0.0582774
0.0573686
0.0793056
0.0792164
0.0790946
0.0789401
0.0787647
0.0785656
0.0783454
0.0781072
0.0778403
0.0775467
0.0772284
0.076884
0.0765097
0.0761182
0.0757106
0.0752787
0.0748217
0.0743468
0.0738584
0.0733514
0.0728228
0.0722733
0.0717102
0.071136
0.0705465
0.0699355
0.0693034
0.0686527
0.0679847
0.0672976
0.0665889
0.0658556
0.0650977
0.06432
0.0635212
0.0627003
0.0618521
0.0609781
0.0600806
0.0591628
0.0810726
0.0809869
0.0808694
0.0807199
0.0805498
0.0803563
0.0801417
0.079909
0.0796478
0.0793601
0.0790476
0.078709
0.0783407
0.0779548
0.0775523
0.0771254
0.0766734
0.076203
0.0757184
0.0752148
0.0746893
0.0741425
0.0735815
0.0730084
0.0724195
0.0718088
0.0711775
0.0705241
0.0698527
0.0691612
0.0684465
0.0677087
0.0669456
0.0661615
0.0653552
0.0645267
0.0636703
0.0627878
0.0618821
0.0609572
0.0828196
0.0827372
0.0826238
0.0824793
0.0823142
0.082126
0.0819168
0.0816895
0.0814339
0.0811521
0.0808455
0.0805127
0.0801506
0.0797706
0.0793734
0.0789518
0.078505
0.0780395
0.0775592
0.0770594
0.0765375
0.075994
0.0754357
0.0748646
0.0742769
0.0736669
0.0730357
0.0723812
0.0717077
0.071013
0.0702942
0.0695514
0.0687842
0.067995
0.0671824
0.0663469
0.0654832
0.0645935
0.063681
0.062751
0.0845458
0.0844666
0.0843572
0.0842174
0.0840573
0.0838743
0.0836704
0.0834483
0.0831983
0.0829223
0.0826215
0.0822948
0.081939
0.0815648
0.0811732
0.0807572
0.0803159
0.0798556
0.0793798
0.0788844
0.0783665
0.077827
0.0772721
0.076704
0.076118
0.0755091
0.0748784
0.0742236
0.0735489
0.0728523
0.0721309
0.0713847
0.0706139
0.0698199
0.0690017
0.0681601
0.0672901
0.0663942
0.0654765
0.0645435
0.0862503
0.0861743
0.0860688
0.0859337
0.0857783
0.0856004
0.0854017
0.0851847
0.0849404
0.0846702
0.0843753
0.0840546
0.0837051
0.0833371
0.0829512
0.0825408
0.0821054
0.0816505
0.0811797
0.0806889
0.0801756
0.0796405
0.07909
0.0785266
0.0779421
0.077335
0.0767051
0.0760505
0.0753754
0.0746779
0.0739552
0.0732068
0.0724341
0.0716351
0.0708119
0.069965
0.0690898
0.068189
0.0672675
0.0663337
0.0879325
0.0878595
0.0877577
0.0876271
0.0874765
0.0873036
0.08711
0.0868982
0.0866594
0.086395
0.086106
0.0857914
0.0854484
0.0850865
0.0847065
0.0843021
0.0838726
0.0834234
0.082958
0.0824722
0.0819639
0.0814337
0.0808877
0.0803283
0.0797473
0.0791441
0.0785148
0.0778609
0.0771862
0.0764889
0.0757667
0.0750162
0.0742409
0.0734386
0.0726116
0.0717605
0.070881
0.0699765
0.0690529
0.0681207
0.0895915
0.0895214
0.0894233
0.0892971
0.0891511
0.088983
0.0887946
0.0885878
0.0883546
0.0880961
0.0878131
0.0875046
0.087168
0.0868124
0.0864384
0.0860401
0.0856168
0.0851736
0.0847138
0.0842335
0.0837307
0.0832058
0.0826648
0.0821096
0.0815322
0.0809323
0.0803054
0.0796533
0.0789799
0.0782838
0.0775619
0.0768106
0.0760336
0.075229
0.0743992
0.0735451
0.0726626
0.0717557
0.0708316
0.0699032
0.0912266
0.0911593
0.0910647
0.0909428
0.0908013
0.0906381
0.0904547
0.090253
0.0900253
0.0897727
0.0894957
0.0891934
0.0888633
0.0885141
0.0881462
0.0877541
0.0873372
0.0869003
0.0864464
0.085972
0.0854751
0.0849563
0.084421
0.0838703
0.0832969
0.0827004
0.0820764
0.0814269
0.0807557
0.0800625
0.0793406
0.0785897
0.0778111
0.0770047
0.0761739
0.0753177
0.0744333
0.0735251
0.0726021
0.07168
0.092837
0.0927724
0.0926813
0.0925635
0.0924264
0.0922679
0.0920895
0.0918929
0.0916708
0.0914241
0.0911532
0.0908572
0.0905336
0.0901908
0.0898291
0.0894434
0.089033
0.0886026
0.088155
0.0876868
0.0871963
0.0866842
0.0861565
0.0856099
0.0850409
0.0844479
0.0838272
0.0831806
0.0825119
0.0818209
0.0811004
0.0803503
0.0795713
0.0787653
0.0779355
0.0770776
0.0761918
0.0752836
0.0743631
0.0734498
0.094422
0.09436
0.0942723
0.0941586
0.0940258
0.0938719
0.0936984
0.0935069
0.0932904
0.0930498
0.0927851
0.0924953
0.0921782
0.0918417
0.0914863
0.0911071
0.0907035
0.0902799
0.0898388
0.0893773
0.0888936
0.0883884
0.0878672
0.0873264
0.0867638
0.0861741
0.0855567
0.0849135
0.0842479
0.0835594
0.082841
0.0820925
0.0813145
0.0805093
0.0796801
0.0788222
0.0779365
0.0770295
0.0761133
0.0752111
0.0959809
0.0959216
0.0958371
0.0957273
0.0955987
0.0954494
0.0952808
0.0950942
0.0948834
0.094649
0.0943909
0.0941071
0.0937963
0.0934661
0.0931171
0.0927445
0.0923479
0.0919313
0.0914971
0.0910427
0.0905663
0.0900687
0.0895539
0.089019
0.0884618
0.0878768
0.0872638
0.0866247
0.0859628
0.0852774
0.0845617
0.0838155
0.0830394
0.0822357
0.0814076
0.0805507
0.0796663
0.0787617
0.0778513
0.0769625
0.0975133
0.0974564
0.097375
0.0972691
0.0971446
0.0969998
0.0968359
0.0966543
0.096449
0.0962209
0.0959706
0.0956917
0.095387
0.0950633
0.0947207
0.094355
0.0939655
0.0935562
0.0931293
0.0926823
0.0922139
0.0917254
0.0912165
0.0906875
0.0901356
0.0895556
0.0889476
0.0883134
0.0876561
0.0869743
0.0862617
0.0855184
0.0847449
0.0839434
0.0831172
0.0822621
0.0813799
0.080479
0.0795756
0.0787023
0.0990185
0.0989639
0.0988857
0.0987834
0.0986629
0.0985225
0.0983632
0.0981864
0.0979865
0.0977643
0.0975203
0.0972476
0.0969495
0.0966325
0.0962966
0.0959379
0.0955558
0.095154
0.0947346
0.0942955
0.0938355
0.0933548
0.092853
0.0923319
0.0917846
0.0912097
0.0906072
0.0899786
0.0893277
0.0886491
0.0879399
0.0872001
0.0864299
0.0856314
0.0848079
0.0839554
0.0830764
0.0821801
0.0812851
0.0804291
0.100496
0.100444
0.100368
0.10027
0.100153
0.100017
0.0998623
0.0996903
0.0994956
0.099279
0.099041
0.0987747
0.0984834
0.0981732
0.0978443
0.0974928
0.0971182
0.0967241
0.0963125
0.0958817
0.0954314
0.0949575
0.094463
0.0939483
0.0934068
0.0928379
0.0922417
0.0916189
0.0909734
0.0902995
0.0895948
0.0888593
0.0880932
0.0872986
0.0864786
0.0856297
0.0847547
0.0838639
0.0829783
0.0821413
0.101945
0.101895
0.101823
0.101728
0.101615
0.101483
0.101333
0.101165
0.100976
0.100765
0.100533
0.100273
0.0999884
0.0996851
0.0993632
0.099019
0.0986522
0.0982659
0.0978624
0.0974398
0.096998
0.0965322
0.0960465
0.0955373
0.0950017
0.0944392
0.0938511
0.0932336
0.0925934
0.0919248
0.0912253
0.090495
0.0897338
0.0889436
0.0881282
0.0872839
0.0864139
0.0855294
0.0846542
0.0838375
0.103366
0.103318
0.103249
0.103157
0.103048
0.10292
0.102774
0.102611
0.102427
0.102221
0.101995
0.101742
0.101464
0.101168
0.100853
0.100516
0.100157
0.0997792
0.099384
0.0989702
0.0985363
0.0980787
0.0976001
0.0970973
0.0965681
0.0960123
0.0954313
0.0948208
0.0941868
0.0935241
0.0928306
0.0921062
0.0913508
0.0905662
0.0897562
0.0889172
0.0880529
0.0871756
0.0863116
0.0855163
0.104758
0.104712
0.104645
0.104557
0.104451
0.104328
0.104186
0.104028
0.103848
0.103649
0.103428
0.103181
0.10291
0.102621
0.102314
0.101984
0.101633
0.101264
0.100877
0.100473
0.100046
0.0995974
0.0991246
0.098628
0.0981054
0.0975565
0.0969828
0.0963809
0.095753
0.0950967
0.0944098
0.0936921
0.0929434
0.0921654
0.0913617
0.0905288
0.089671
0.0888016
0.0879493
0.0871763
0.106121
0.106077
0.106013
0.105928
0.105826
0.105706
0.105568
0.105415
0.10524
0.105046
0.104831
0.104591
0.104327
0.104045
0.103744
0.103423
0.10308
0.102719
0.102341
0.101945
0.101526
0.101084
0.100619
0.100129
0.0996131
0.0990713
0.0985047
0.0979106
0.0972903
0.0966415
0.0959622
0.095252
0.0945106
0.0937408
0.0929442
0.0921181
0.0912675
0.0904064
0.0895663
0.088816
0.107455
0.107413
0.107351
0.107269
0.10717
0.107054
0.106921
0.106771
0.106602
0.106413
0.106205
0.105971
0.105714
0.105438
0.105145
0.104831
0.104496
0.104144
0.103776
0.103386
0.102976
0.102541
0.102082
0.101599
0.101091
0.100557
0.0999962
0.0994109
0.0987987
0.0981583
0.0974874
0.0967856
0.0960528
0.0952929
0.0945033
0.0936845
0.0928415
0.0919893
0.0911617
0.0904345
0.108758
0.108718
0.108659
0.10858
0.108485
0.108372
0.108243
0.108098
0.107934
0.10775
0.107548
0.107321
0.107071
0.106802
0.106515
0.106209
0.105882
0.10554
0.105178
0.104796
0.104393
0.103965
0.103513
0.103039
0.102539
0.102013
0.10146
0.100883
0.100279
0.0996471
0.098985
0.0982922
0.0975688
0.0968182
0.0960373
0.0952268
0.0943923
0.0935494
0.0927347
0.0920304
0.110033
0.109994
0.109937
0.109861
0.109769
0.10966
0.109535
0.109394
0.109235
0.109057
0.108861
0.108642
0.108397
0.108134
0.107855
0.107556
0.107238
0.106903
0.106549
0.106173
0.105777
0.105357
0.104914
0.104448
0.103957
0.103439
0.102895
0.102325
0.101731
0.101108
0.100455
0.0997721
0.0990585
0.0983176
0.0975461
0.0967447
0.0959192
0.0950862
0.0942844
0.093603
0.111277
0.11124
0.111186
0.111112
0.111024
0.110918
0.110797
0.110661
0.110506
0.110333
0.110142
0.10993
0.109692
0.109436
0.109163
0.108872
0.108563
0.108235
0.107887
0.107519
0.107129
0.106718
0.106284
0.105827
0.105345
0.104836
0.104301
0.10374
0.103154
0.102541
0.101898
0.101225
0.100522
0.0997913
0.0990297
0.098238
0.0974221
0.0965992
0.0958103
0.0951513
0.112492
0.112457
0.112404
0.112334
0.112248
0.112146
0.112029
0.111896
0.111746
0.111578
0.111393
0.111187
0.110956
0.110707
0.110441
0.110157
0.109856
0.109535
0.109194
0.108833
0.108451
0.108049
0.107624
0.107176
0.106703
0.106204
0.105679
0.105127
0.10455
0.103946
0.103313
0.102651
0.10196
0.10124
0.100488
0.0997064
0.0989005
0.098088
0.0973119
0.0966746
0.113677
0.113643
0.113593
0.113525
0.113442
0.113344
0.11323
0.113102
0.112956
0.112793
0.112614
0.112414
0.112189
0.111947
0.111688
0.11141
0.111116
0.110803
0.11047
0.110117
0.109743
0.109349
0.108933
0.108494
0.108031
0.107542
0.107027
0.106485
0.105918
0.105325
0.104702
0.104051
0.103373
0.102663
0.101921
0.10115
0.100354
0.099552
0.0987885
0.0981723
0.114833
0.1148
0.114752
0.114686
0.114607
0.114512
0.114402
0.114277
0.114136
0.113978
0.113804
0.11361
0.113392
0.113157
0.112904
0.112634
0.112345
0.11204
0.111716
0.111371
0.111005
0.110619
0.110212
0.109783
0.109329
0.10885
0.108345
0.107814
0.107258
0.106675
0.106064
0.105424
0.104757
0.104058
0.103328
0.102567
0.101782
0.100991
0.10024
0.0996438
0.115959
0.115928
0.115881
0.115818
0.115741
0.115649
0.115543
0.115422
0.115285
0.115132
0.114964
0.114776
0.114565
0.114337
0.114091
0.113827
0.113545
0.113247
0.112931
0.112594
0.112237
0.111858
0.111461
0.111041
0.110597
0.110129
0.109634
0.109114
0.108569
0.107997
0.107397
0.106769
0.106114
0.105426
0.104708
0.103958
0.103184
0.102404
0.101665
0.101088
0.117055
0.117026
0.116981
0.116921
0.116846
0.116758
0.116655
0.116538
0.116405
0.116257
0.116093
0.115912
0.11571
0.115487
0.115247
0.11499
0.114715
0.114425
0.114116
0.113788
0.113439
0.113069
0.11268
0.11227
0.111836
0.111378
0.110894
0.110385
0.109851
0.10929
0.108702
0.108086
0.107443
0.106768
0.10606
0.105323
0.10456
0.103791
0.103064
0.102506
0.118123
0.118095
0.118052
0.117994
0.117922
0.117836
0.117737
0.117624
0.117495
0.117352
0.117193
0.117018
0.116822
0.116606
0.116373
0.116123
0.115855
0.115572
0.115271
0.114951
0.11461
0.114249
0.11387
0.113469
0.113045
0.112597
0.112124
0.111626
0.111104
0.110555
0.109979
0.109377
0.108745
0.108081
0.107386
0.10666
0.105909
0.105152
0.104437
0.103895
0.119161
0.119135
0.119093
0.119038
0.118969
0.118886
0.11879
0.11868
0.118556
0.118417
0.118263
0.118093
0.117904
0.117695
0.117469
0.117226
0.116965
0.116688
0.116396
0.116084
0.115753
0.1154
0.115029
0.114638
0.114224
0.113787
0.113325
0.112838
0.112327
0.11179
0.111226
0.110637
0.110017
0.109366
0.108683
0.10797
0.107231
0.106485
0.105782
0.105257
0.120172
0.120146
0.120106
0.120053
0.119986
0.119907
0.119814
0.119708
0.119587
0.119453
0.119304
0.11914
0.118957
0.118755
0.118536
0.1183
0.118046
0.117776
0.117492
0.117189
0.116865
0.116522
0.11616
0.115778
0.115374
0.114947
0.114496
0.114021
0.113521
0.112996
0.112444
0.111867
0.111261
0.110623
0.109953
0.109252
0.108526
0.107792
0.1071
0.10659
0.121153
0.121129
0.121091
0.12104
0.120976
0.120899
0.120809
0.120707
0.12059
0.12046
0.120316
0.120157
0.119981
0.119788
0.119574
0.119345
0.119098
0.118835
0.118558
0.118263
0.117949
0.117615
0.117261
0.116888
0.116495
0.116079
0.115639
0.115175
0.114686
0.114173
0.113634
0.11307
0.112476
0.111851
0.111195
0.110507
0.109794
0.109071
0.10839
0.107894
0.122108
0.122084
0.122048
0.121998
0.121937
0.121863
0.121776
0.121677
0.121564
0.121439
0.121299
0.121145
0.120975
0.120789
0.120583
0.12036
0.120121
0.119866
0.119595
0.119309
0.119004
0.118679
0.118335
0.117971
0.117586
0.117181
0.116752
0.116299
0.115823
0.115321
0.114795
0.114244
0.113663
0.113051
0.112408
0.111734
0.111033
0.110323
0.109653
0.10917
0.123034
0.123012
0.122977
0.122929
0.12287
0.122799
0.122715
0.12262
0.122511
0.122389
0.122255
0.122106
0.121941
0.121761
0.121562
0.121347
0.121115
0.120868
0.120605
0.120327
0.12003
0.119714
0.119379
0.119025
0.118651
0.118254
0.117837
0.117395
0.11693
0.116442
0.11593
0.115391
0.114823
0.114224
0.113593
0.112933
0.112245
0.111546
0.110887
0.110416
0.123934
0.123912
0.123879
0.123833
0.123777
0.123708
0.123627
0.123535
0.12343
0.123312
0.123182
0.123038
0.12288
0.122706
0.122515
0.122307
0.122082
0.121842
0.121587
0.121316
0.121028
0.120721
0.120396
0.120051
0.119687
0.119301
0.118893
0.118463
0.11801
0.117534
0.117035
0.116509
0.115953
0.115367
0.11475
0.114103
0.113428
0.112741
0.112092
0.111632
0.124806
0.124786
0.124754
0.124711
0.124656
0.12459
0.124512
0.124423
0.124322
0.124208
0.124082
0.123943
0.12379
0.123623
0.123441
0.123239
0.123021
0.122789
0.122541
0.122277
0.121998
0.1217
0.121384
0.121049
0.120695
0.120319
0.119922
0.119503
0.119062
0.118599
0.118112
0.117598
0.117055
0.116482
0.115878
0.115244
0.114582
0.113907
0.113268
0.112817
0.125653
0.125634
0.125603
0.125561
0.125509
0.125445
0.12537
0.125285
0.125187
0.125077
0.124956
0.124822
0.124674
0.124513
0.124337
0.124143
0.123933
0.123708
0.123468
0.123212