/*--------------------------------*- C++ -*----------------------------------*\
| =========                 |                                                 |
| \\      /  F ield         | OpenFOAM: The Open Source CFD Toolbox           |
|  \\    /   O peration     | Version:  3.0.1                                 |
|   \\  /    A nd           | Web:      www.OpenFOAM.org                      |
|    \\/     M anipulation  |                                                 |
\*---------------------------------------------------------------------------*/
FoamFile
{
    version     2.0;
    format      ascii;
    class       volScalarField;
    location    "500";
    object      p;
}
// * * * * * * * * * * * * * * * * * * * * * * * * * * * * * * * * * * * * * //

dimensions      [0 2 -2 0 0 0 0];

internalField   nonuniform List<scalar> 
58000
(
0.219836
-0.0189807
-0.209736
-0.339869
-0.421895
-0.475501
-0.514424
-0.53879
-0.555143
-0.564951
-0.567506
-0.56546
-0.560874
-0.553872
-0.545208
-0.536283
-0.527596
-0.519016
-0.510359
-0.50201
-0.494067
-0.4864
-0.478848
-0.471328
-0.464087
-0.457129
-0.450267
-0.443464
-0.436662
-0.429926
-0.423336
-0.416683
-0.409837
-0.402951
-0.396481
-0.388983
-0.381044
-0.373871
-0.368608
-0.364449
0.366419
0.276987
0.184511
0.0795653
-0.0207932
-0.112875
-0.18936
-0.254071
-0.311035
-0.356135
-0.391132
-0.419267
-0.440634
-0.454183
-0.462947
-0.467822
-0.469385
-0.46831
-0.465741
-0.462238
-0.457866
-0.452876
-0.447482
-0.442087
-0.436575
-0.430873
-0.425033
-0.419133
-0.41334
-0.40775
-0.402182
-0.396702
-0.391389
-0.386177
-0.380769
-0.374598
-0.367926
-0.361625
-0.356451
-0.352836
0.26622
0.20131
0.136798
0.0685814
-0.00201907
-0.0682851
-0.132475
-0.188269
-0.238874
-0.283899
-0.320125
-0.349671
-0.374578
-0.393499
-0.406544
-0.41602
-0.422659
-0.42651
-0.427969
-0.427812
-0.426524
-0.424336
-0.421425
-0.417983
-0.414118
-0.409931
-0.405491
-0.400878
-0.396209
-0.391461
-0.38658
-0.381608
-0.37655
-0.371427
-0.366275
-0.360984
-0.355565
-0.350278
-0.345371
-0.340862
0.249143
0.211138
0.17052
0.123724
0.0721034
0.0190116
-0.0351516
-0.0860806
-0.135267
-0.18107
-0.220758
-0.255781
-0.287112
-0.312711
-0.332609
-0.348927
-0.36205
-0.3717
-0.378198
-0.382524
-0.385239
-0.386531
-0.386527
-0.385531
-0.383831
-0.381565
-0.378801
-0.375624
-0.372182
-0.368553
-0.364718
-0.36071
-0.356548
-0.352285
-0.347999
-0.34365
-0.339169
-0.334647
-0.330212
-0.32592
0.208762
0.181036
0.152877
0.121064
0.0844148
0.0457981
0.00356094
-0.0379579
-0.0795961
-0.12061
-0.157776
-0.191772
-0.22354
-0.251162
-0.27363
-0.293048
-0.309699
-0.323083
-0.333119
-0.34075
-0.346625
-0.350885
-0.353567
-0.354872
-0.355222
-0.354828
-0.353764
-0.352117
-0.35001
-0.347525
-0.344726
-0.341655
-0.338332
-0.334821
-0.331203
-0.327482
-0.323628
-0.319678
-0.315684
-0.311666
0.183817
0.162874
0.141943
0.118517
0.0912889
0.0623532
0.0296345
-0.00368159
-0.03812
-0.0733951
-0.106682
-0.138246
-0.168734
-0.196435
-0.219934
-0.241072
-0.259938
-0.27589
-0.288603
-0.298926
-0.30748
-0.314329
-0.319416
-0.322876
-0.325209
-0.326651
-0.32727
-0.327142
-0.326368
-0.325073
-0.323373
-0.321312
-0.318917
-0.31625
-0.313396
-0.310394
-0.307222
-0.303893
-0.300434
-0.29687
0.160938
0.144165
0.127801
0.109827
0.088875
0.0667287
0.041142
0.014584
-0.0133558
-0.0428845
-0.071615
-0.099572
-0.127298
-0.153488
-0.17641
-0.197662
-0.217221
-0.234411
-0.248691
-0.260758
-0.271193
-0.27998
-0.286992
-0.292251
-0.29629
-0.299357
-0.301505
-0.302791
-0.303291
-0.303139
-0.3025
-0.30142
-0.299931
-0.29809
-0.295978
-0.293651
-0.291108
-0.288355
-0.285411
-0.282299
0.142463
0.128564
0.115209
0.100773
0.084025
0.0664888
0.0460429
0.0246038
0.00183951
-0.0227316
-0.047192
-0.0714663
-0.0960115
-0.119929
-0.141407
-0.161811
-0.181044
-0.19847
-0.213419
-0.226437
-0.238035
-0.248128
-0.256539
-0.26319
-0.268606
-0.273025
-0.276479
-0.279004
-0.280648
-0.281547
-0.281898
-0.281745
-0.281119
-0.280076
-0.278686
-0.277022
-0.275098
-0.272918
-0.270498
-0.267863
0.126755
0.114935
0.103704
0.0917272
0.0779161
0.0636109
0.046886
0.0292847
0.0105331
-0.00998395
-0.0307403
-0.0516303
-0.0730548
-0.0944563
-0.114069
-0.133067
-0.151323
-0.16828
-0.183214
-0.196524
-0.208658
-0.219477
-0.228786
-0.236412
-0.242847
-0.248309
-0.252808
-0.256358
-0.25898
-0.260796
-0.262025
-0.262705
-0.262866
-0.262557
-0.26184
-0.260797
-0.259455
-0.257816
-0.255898
-0.253724
0.113413
0.103164
0.0934957
0.083297
0.0716155
0.0596371
0.0456483
0.030925
0.0152429
-0.00205
-0.019735
-0.037705
-0.056315
-0.0752654
-0.0929178
-0.110281
-0.127222
-0.143282
-0.157733
-0.17086
-0.183049
-0.194131
-0.203906
-0.21213
-0.219247
-0.225452
-0.230731
-0.23508
-0.238492
-0.241072
-0.243047
-0.244449
-0.245302
-0.245649
-0.245541
-0.245067
-0.244262
-0.243128
-0.241682
-0.239948
0.101942
0.0929225
0.0844507
0.0755903
0.0655089
0.0552607
0.0433313
0.0307977
0.0174762
0.0027317
-0.0124504
-0.0279742
-0.0441535
-0.0608675
-0.0766392
-0.0923407
-0.107844
-0.122785
-0.136472
-0.149104
-0.161012
-0.17201
-0.181909
-0.190416
-0.197924
-0.204602
-0.210415
-0.215345
-0.219362
-0.222548
-0.22513
-0.227131
-0.228571
-0.229485
-0.229913
-0.229944
-0.229621
-0.228945
-0.227932
-0.226605
0.0920053
0.0839751
0.0764487
0.0686293
0.0597877
0.050864
0.0405221
0.0296859
0.0182039
0.00548159
-0.00767177
-0.0211727
-0.0352961
-0.0500408
-0.0640973
-0.0782225
-0.0922998
-0.106046
-0.118826
-0.130778
-0.142186
-0.152861
-0.162631
-0.171177
-0.17884
-0.185763
-0.191898
-0.197213
-0.201663
-0.205305
-0.208358
-0.210839
-0.21276
-0.214147
-0.215031
-0.215499
-0.215598
-0.215328
-0.214705
-0.213747
0.0833353
0.0761187
0.069359
0.0623724
0.0545178
0.0466359
0.0375464
0.0280519
0.0180259
0.0069244
-0.00457883
-0.0164119
-0.0288143
-0.0418582
-0.0543921
-0.0670759
-0.0798076
-0.092373
-0.104199
-0.115379
-0.126162
-0.136362
-0.145828
-0.154231
-0.161867
-0.168856
-0.17514
-0.180675
-0.185407
-0.189369
-0.19277
-0.195615
-0.197913
-0.199684
-0.200945
-0.201781
-0.202241
-0.202323
-0.202042
-0.20141
0.0757232
0.0691883
0.0630639
0.0567592
0.0497089
0.0426658
0.0345859
0.0261719
0.0173172
0.00753068
-0.00261911
-0.0130706
-0.0240331
-0.0356208
-0.0468232
-0.0582186
-0.0697197
-0.0811669
-0.0920504
-0.102433
-0.11253
-0.122167
-0.131218
-0.139354
-0.146831
-0.15375
-0.160045
-0.165668
-0.170554
-0.174719
-0.178355
-0.181463
-0.184044
-0.186112
-0.187676
-0.188814
-0.189575
-0.189955
-0.189968
-0.18962
0.0690033
0.0630484
0.05746
0.0517247
0.0453429
0.0389895
0.031739
0.0242107
0.0163139
0.00760816
-0.00142107
-0.010721
-0.0204743
-0.0308169
-0.0408638
-0.0511228
-0.0615183
-0.0719324
-0.0819163
-0.0915135
-0.100912
-0.109948
-0.11852
-0.126311
-0.133538
-0.140286
-0.146489
-0.152093
-0.15703
-0.161299
-0.165078
-0.168359
-0.17114
-0.173429
-0.175226
-0.176604
-0.177608
-0.178235
-0.178495
-0.178389
0.0630424
0.0575873
0.0524578
0.0472062
0.0413893
0.0356133
0.0290558
0.0222654
0.0151641
0.00735846
-0.000733158
-0.00906532
-0.0177973
-0.0270738
-0.0361197
-0.0453815
-0.054793
-0.0642683
-0.073414
-0.0822608
-0.0909743
-0.0994058
-0.10747
-0.114868
-0.121786
-0.128297
-0.134331
-0.139837
-0.144743
-0.149037
-0.152879
-0.156259
-0.159168
-0.16161
-0.16358
-0.16514
-0.166336
-0.167162
-0.167625
-0.167721
0.0577311
0.0527115
0.0479805
0.0431458
0.0378133
0.0325283
0.0265585
0.0203919
0.0139607
0.00691394
-0.000384744
-0.00789622
-0.0157595
-0.0241199
-0.0322969
-0.0406844
-0.0492243
-0.0578549
-0.0662315
-0.0743763
-0.0824359
-0.0902759
-0.0978261
-0.104809
-0.111384
-0.117613
-0.123427
-0.128777
-0.133591
-0.137846
-0.14169
-0.145107
-0.148084
-0.150622
-0.152709
-0.154403
-0.155743
-0.156724
-0.15735
-0.157611
0.0529799
0.0483437
0.0439624
0.0394913
0.0345796
0.0297179
0.0242532
0.0186207
0.0127612
0.00636185
-0.000259283
-0.00706838
-0.0141869
-0.0217558
-0.0291764
-0.0367967
-0.0445658
-0.0524397
-0.0601168
-0.067613
-0.0750587
-0.0823329
-0.0893789
-0.0959401
-0.102156
-0.108077
-0.113639
-0.118793
-0.12347
-0.12764
-0.131436
-0.13484
-0.137836
-0.140421
-0.142581
-0.144363
-0.145807
-0.146903
-0.147656
-0.148049
0.0487152
0.044419
0.0403474
0.036197
0.0316548
0.0271626
0.0221368
0.016967
0.0116008
0.00575956
-0.000276998
-0.00647964
-0.0129547
-0.0198358
-0.0265949
-0.0335404
-0.0406274
-0.0478249
-0.0548684
-0.06177
-0.0686454
-0.0753864
-0.0819475
-0.0880938
-0.0939467
-0.0995484
-0.104839
-0.10977
-0.114278
-0.118328
-0.122039
-0.125391
-0.128367
-0.13096
-0.133153
-0.134987
-0.136499
-0.137678
-0.138525
-0.139019
0.0448752
0.0408829
0.037088
0.0332229
0.029008
0.0248415
0.0202013
0.0154362
0.0105
0.00514457
-0.000383096
-0.0060577
-0.0119725
-0.0182523
-0.0244303
-0.0307803
-0.0372624
-0.0438551
-0.0503263
-0.0566851
-0.0630345
-0.0692779
-0.0753793
-0.0811246
-0.0866194
-0.0918998
-0.0969091
-0.101603
-0.105922
-0.109827
-0.113425
-0.116695
-0.119619
-0.122188
-0.124383
-0.126239
-0.127788
-0.12902
-0.129934
-0.130504
0.0414082
0.0376891
0.0341432
0.0305338
0.026611
0.0227342
0.0184354
0.0140278
0.00947009
0.00454116
-0.000539921
-0.00575124
-0.0111746
-0.0169256
-0.0225905
-0.0284129
-0.034357
-0.0404086
-0.0463631
-0.0522277
-0.0580941
-0.0638761
-0.0695454
-0.0749077
-0.0800553
-0.0850191
-0.0897464
-0.0941964
-0.0983124
-0.102056
-0.105522
-0.108688
-0.111536
-0.114056
-0.116227
-0.11808
-0.119642
-0.120902
-0.121859
-0.122482
0.03827
0.0347978
0.0314773
0.0280989
0.024439
0.0208216
0.0168273
0.0127378
0.008516
0.0039645
-0.000721801
-0.00552375
-0.0105133
-0.0157964
-0.0210058
-0.0263588
-0.031823
-0.0373892
-0.0428769
-0.0482919
-0.0537158
-0.0590718
-0.0643376
-0.0693374
-0.0741523
-0.0788089
-0.0832583
-0.0874629
-0.0913706
-0.0949424
-0.0982624
-0.10131
-0.104064
-0.106516
-0.108643
-0.110472
-0.112026
-0.113295
-0.114274
-0.114932
0.035423
0.0321751
0.0290598
0.0258912
0.0224691
0.019086
0.0153653
0.0115606
0.0076387
0.00342344
-0.000911403
-0.00534916
-0.00995323
-0.0148201
-0.0196232
-0.0245565
-0.029591
-0.0347208
-0.0397865
-0.0447923
-0.0498112
-0.0547748
-0.0596655
-0.0643246
-0.0688233
-0.0731849
-0.0773643
-0.0813271
-0.085025
-0.0884199
-0.0915865
-0.0945038
-0.0971527
-0.0995219
-0.10159
-0.103378
-0.104908
-0.106168
-0.107154
-0.107829
0.0328349
0.0297917
0.026864
0.0238869
0.0206811
0.0175107
0.0140373
0.0104895
0.0068372
0.00292334
-0.00109671
-0.00520853
-0.00946805
-0.0139629
-0.018402
-0.0229586
-0.0276066
-0.0323429
-0.0370261
-0.0416595
-0.0463082
-0.0509107
-0.0554538
-0.0597941
-0.0639943
-0.0680749
-0.0719946
-0.0757217
-0.0792119
-0.0824284
-0.0854374
-0.0882186
-0.0907533
-0.0930299
-0.0950271
-0.0967625
-0.0982556
-0.0994936
-0.100472
-0.101151
0.0304776
0.0276219
0.0248665
0.0220652
0.0190571
0.0160806
0.012832
0.00951711
0.00610878
0.00246667
-0.00126994
-0.00508854
-0.00903847
-0.0131991
-0.0173108
-0.0215282
-0.0258276
-0.0302077
-0.0345433
-0.0388371
-0.043147
-0.0474178
-0.0516393
-0.0556822
-0.0596021
-0.0634165
-0.0670881
-0.0705878
-0.073875
-0.0769144
-0.079765
-0.0824069
-0.0848223
-0.0869996
-0.0889177
-0.0905912
-0.092037
-0.0932425
-0.094202
-0.0948757
0.0283269
0.0256435
0.023047
0.0204077
0.017581
0.0147825
0.0117389
0.0086361
0.00544945
0.00205357
-0.00142653
-0.00497999
-0.00865034
-0.0125093
-0.0163249
-0.0202356
-0.0242197
-0.028277
-0.0322961
-0.0362794
-0.0402788
-0.0442447
-0.0481689
-0.0519353
-0.0555927
-0.0591562
-0.0625921
-0.0658739
-0.0689646
-0.0718305
-0.0745239
-0.077026
-0.0793197
-0.0813934
-0.0832269
-0.0848318
-0.0862228
-0.0873877
-0.0883202
-0.0889792
0.0263617
0.0238372
0.0213877
0.018898
0.0162384
0.0136037
0.0107482
0.00783939
0.00485507
0.00168332
-0.00156362
-0.00487623
-0.00829309
-0.0118787
-0.0154255
-0.0190577
-0.0227555
-0.0265193
-0.0302499
-0.0339493
-0.037664
-0.0413491
-0.0449986
-0.0485079
-0.0519198
-0.0552478
-0.0584609
-0.0615351
-0.0644369
-0.0671343
-0.0696737
-0.0720373
-0.0742088
-0.076177
-0.0779223
-0.0794542
-0.0807852
-0.0819035
-0.0828024
-0.08344
0.0245632
0.0221857
0.0198727
0.0175217
0.0150167
0.0125334
0.00985072
0.00712006
0.00432127
0.00135436
-0.00167977
-0.00477274
-0.00795877
-0.0112958
-0.014598
-0.0179765
-0.0214134
-0.0249095
-0.0283764
-0.0318158
-0.035269
-0.0386958
-0.0420913
-0.0453615
-0.0485446
-0.0516518
-0.0546549
-0.0575323
-0.0602534
-0.0627883
-0.0651781
-0.067406
-0.0694565
-0.0713188
-0.0729743
-0.0744304
-0.0756978
-0.0767653
-0.0776259
-0.078237
0.0229152
0.0206739
0.0184879
0.016266
0.0139042
0.0115612
0.00903815
0.00647163
0.00384356
0.00106453
-0.00177462
-0.00466659
-0.00764168
-0.0107518
-0.0138304
-0.0169772
-0.0201758
-0.0234273
-0.0266526
-0.0298533
-0.033066
-0.0362548
-0.0394156
-0.0424639
-0.0454334
-0.0483339
-0.0511397
-0.0538311
-0.0563802
-0.0587592
-0.0610048
-0.0631009
-0.0650328
-0.0667902
-0.0683555
-0.0697345
-0.0709363
-0.0719502
-0.072769
-0.07335
0.0214032
0.0192885
0.0172207
0.0151192
0.0128906
0.0106781
0.00830279
0.00588806
0.00341761
0.000811458
-0.00184846
-0.00455584
-0.00733756
-0.01024
-0.0131136
-0.0160481
-0.0190284
-0.0220556
-0.0250593
-0.0280405
-0.0310319
-0.0340011
-0.0369449
-0.039787
-0.0425576
-0.0452649
-0.0478855
-0.0504014
-0.0527875
-0.0550178
-0.0571249
-0.0590937
-0.0609102
-0.0625648
-0.0640407
-0.0653425
-0.0664779
-0.0674365
-0.0682113
-0.0687597
0.0200143
0.0180174
0.0160603
0.0140714
0.0119669
0.00987592
0.00763771
0.00536378
0.00303921
0.000592602
-0.00190214
-0.0044395
-0.00704329
-0.00975494
-0.0124403
-0.0151797
-0.0179595
-0.0207809
-0.0235807
-0.0263597
-0.0291471
-0.0319136
-0.0346565
-0.0373072
-0.0398924
-0.0424192
-0.0448662
-0.0472171
-0.049449
-0.0515379
-0.0535127
-0.0553591
-0.0570642
-0.0586187
-0.0600069
-0.0612323
-0.0623012
-0.063204
-0.0639336
-0.0644477
0.0187373
0.0168503
0.0149968
0.0131134
0.0111246
0.00914722
0.00703664
0.00489354
0.00270437
0.000405376
-0.00193672
-0.00431703
-0.00675666
-0.00929257
-0.0118044
-0.0143642
-0.0169596
-0.0195916
-0.0222035
-0.0247961
-0.0273952
-0.0299742
-0.0325311
-0.0350039
-0.0374164
-0.0397747
-0.0420592
-0.0442551
-0.0463415
-0.0482964
-0.0501451
-0.0518746
-0.0534726
-0.0549302
-0.056233
-0.0573834
-0.0583867
-0.0592339
-0.0599178
-0.0603967
0.0175621
0.0157777
0.0140214
0.0122368
0.0103563
0.00848529
0.0064937
0.00447246
0.00240931
0.000247277
-0.00195336
-0.00418822
-0.006476
-0.00884971
-0.0112013
-0.0135955
-0.0160208
-0.0184783
-0.0209169
-0.023337
-0.025762
-0.0281676
-0.0305521
-0.0328596
-0.0351112
-0.0373122
-0.0394447
-0.041495
-0.0434445
-0.0452724
-0.0470016
-0.0486196
-0.0501151
-0.0514796
-0.0526997
-0.0537772
-0.0547163
-0.0555085
-0.0561468
-0.0565904
0.0164794
0.0147912
0.0131261
0.0114344
0.00965535
0.00788407
0.00600362
0.00409617
0.00215056
0.0001159
-0.00195335
-0.00405323
-0.00620033
-0.00842402
-0.0106273
-0.0128684
-0.0151367
-0.0174329
-0.0197112
-0.0219719
-0.0242357
-0.0264807
-0.0287051
-0.0308589
-0.0329606
-0.0350148
-0.0370051
-0.0389191
-0.0407396
-0.0424478
-0.0440637
-0.0455758
-0.0469735
-0.0482489
-0.0493895
-0.0503964
-0.051273
-0.0520114
-0.0526049
-0.0530132
0.0154811
0.013883
0.0123038
0.0106995
0.0090157
0.00733812
0.0055617
0.00376064
0.00192481
8.83932e-06
-0.00193806
-0.00391241
-0.0059289
-0.00801364
-0.0100795
-0.0121788
-0.0143018
-0.0164488
-0.0185787
-0.0206916
-0.022806
-0.0249019
-0.0269779
-0.0289886
-0.0309507
-0.0328679
-0.0347253
-0.0365114
-0.0382108
-0.0398061
-0.0413149
-0.0427267
-0.0440315
-0.0452218
-0.0462862
-0.0472251
-0.0480413
-0.0487275
-0.049277
-0.0496507
0.01456
0.0130465
0.0115482
0.0100262
0.00843194
0.00684252
0.00516359
0.00346217
0.0017291
-7.60792e-05
-0.00190889
-0.00376629
-0.00566135
-0.0076172
-0.00955556
-0.0115233
-0.0135115
-0.0155202
-0.0175125
-0.0194883
-0.021464
-0.0234216
-0.0253595
-0.0272371
-0.029069
-0.0308583
-0.0325914
-0.0342579
-0.0358436
-0.0373326
-0.0387404
-0.0400573
-0.0412739
-0.0423834
-0.043375
-0.0442487
-0.0450068
-0.0456425
-0.0461494
-0.0464893
0.0137095
0.0122755
0.0108535
0.00940919
0.0078991
0.00639274
0.00480533
0.0031974
0.00156068
-0.00014094
-0.00186727
-0.00361563
-0.00539762
-0.00723369
-0.00905345
-0.010899
-0.012762
-0.0146424
-0.0165068
-0.0183552
-0.0202021
-0.0220311
-0.0238408
-0.0255943
-0.0273047
-0.0289747
-0.0305917
-0.0321461
-0.0336251
-0.0350141
-0.0363268
-0.0375541
-0.0386873
-0.03972
-0.0406422
-0.0414537
-0.0421562
-0.0427433
-0.0432092
-0.0435163
0.0129235
0.0115644
0.0102144
0.00884352
0.00741272
0.00598467
0.00448326
0.00296315
0.00141686
-0.000187852
-0.00181466
-0.00346122
-0.00513777
-0.00686232
-0.0085716
-0.0103033
-0.0120499
-0.013811
-0.0155566
-0.0172865
-0.0190136
-0.020723
-0.0224132
-0.0240511
-0.0256482
-0.0272067
-0.0287151
-0.0301648
-0.0315438
-0.0328388
-0.0340619
-0.0352048
-0.0362592
-0.0372192
-0.0380756
-0.0388278
-0.0394772
-0.0400179
-0.0404443
-0.0407197
0.0121965
0.010908
0.00962625
0.00832477
0.00696875
0.0056146
0.00419409
0.00275652
0.00129511
-0.000218806
-0.00175248
-0.00330383
-0.00488187
-0.00650245
-0.00810867
-0.00973434
-0.0113725
-0.0130226
-0.0146575
-0.016277
-0.0178926
-0.0194906
-0.0210696
-0.0225997
-0.024091
-0.0255454
-0.0269524
-0.028304
-0.0295893
-0.0307961
-0.031935
-0.0329982
-0.0339783
-0.0348696
-0.0356636
-0.0363596
-0.0369585
-0.0374549
-0.0378434
-0.0380884
0.0115238
0.0103019
0.00908465
0.00784886
0.00656342
0.00527909
0.00393474
0.00257481
0.0011932
-0.000235608
-0.00168203
-0.0031442
-0.00463008
-0.00615356
-0.00766351
-0.0091902
-0.0107272
-0.0122738
-0.0138056
-0.0153223
-0.0168338
-0.0183281
-0.0198034
-0.021233
-0.0226256
-0.0239827
-0.0252949
-0.0265547
-0.0277523
-0.0288762
-0.029936
-0.0309243
-0.0318344
-0.0326608
-0.0333959
-0.0340386
-0.0345896
-0.0350439
-0.0353963
-0.0356122
0.0109007
0.00974178
0.00858564
0.00741208
0.00619331
0.00497501
0.00370241
0.0024156
0.00110906
-0.000239852
-0.00160442
-0.00298297
-0.00438253
-0.00581524
-0.00723515
-0.00866935
-0.0101119
-0.011562
-0.0129976
-0.0144183
-0.0158329
-0.0172303
-0.018609
-0.0199447
-0.0212451
-0.0225114
-0.023735
-0.0249089
-0.0260242
-0.0270705
-0.028056
-0.028974
-0.0298181
-0.0305835
-0.0312629
-0.0318553
-0.0323608
-0.0327752
-0.0330932
-0.0332814
0.0103234
0.00922384
0.00812563
0.00701106
0.00585532
0.00469951
0.00349458
0.00227668
0.00104087
-0.000232968
-0.00152067
-0.00282074
-0.00413935
-0.00548712
-0.00682273
-0.00817043
-0.00952474
-0.0108848
-0.0122305
-0.0135615
-0.0148856
-0.0161927
-0.0174812
-0.0187292
-0.0199435
-0.021125
-0.0222656
-0.0233592
-0.0243975
-0.0253709
-0.0262867
-0.0271387
-0.027921
-0.0286289
-0.0292558
-0.0298006
-0.0302633
-0.0306398
-0.0309252
-0.0310869
0.00978792
0.00874465
0.00770137
0.00664274
0.00554664
0.00444999
0.00330894
0.00215608
0.000986946
-0.000216268
-0.00143172
-0.00265805
-0.0039007
-0.0051689
-0.00642552
-0.00769224
-0.008964
-0.0102398
-0.0115015
-0.0127488
-0.0139884
-0.0152111
-0.0164154
-0.0175814
-0.0187152
-0.0198174
-0.0208806
-0.0218991
-0.0228652
-0.0237704
-0.0246209
-0.025411
-0.0261351
-0.026789
-0.0273665
-0.0278665
-0.0282887
-0.0286294
-0.0288839
-0.0290206
0.0092911
0.00830105
0.0073099
0.00630436
0.00526471
0.00422413
0.00314343
0.00205196
0.000945761
-0.000190959
-0.00133844
-0.00249544
-0.00366673
-0.00486034
-0.00604288
-0.00723372
-0.00842821
-0.00962521
-0.0108084
-0.0119773
-0.0131379
-0.0142818
-0.0154074
-0.0164969
-0.0175555
-0.0185835
-0.0195743
-0.0205225
-0.0214211
-0.0222623
-0.0230516
-0.0237837
-0.0244533
-0.0250564
-0.0255876
-0.0260453
-0.0264294
-0.0267364
-0.0269618
-0.0270747
0.00882983
0.00789017
0.00694852
0.00599337
0.0050072
0.00401979
0.00299614
0.00196269
0.000915914
-0.000158148
-0.00124163
-0.00233339
-0.00343761
-0.00456122
-0.00567423
-0.00679393
-0.00791601
-0.00903929
-0.010149
-0.0112446
-0.0123313
-0.0134015
-0.0144537
-0.0154715
-0.0164597
-0.0174184
-0.0183415
-0.0192239
-0.0200594
-0.0208408
-0.0215728
-0.0222504
-0.0228688
-0.0234244
-0.023912
-0.0243301
-0.0246784
-0.0249537
-0.0251515
-0.0252422
0.00840131
0.00750941
0.00661476
0.00570748
0.004772
0.00383502
0.00286533
0.00188675
0.000896126
-0.000118853
-0.00114203
-0.00217236
-0.00321348
-0.00427137
-0.00531908
-0.00637202
-0.00742623
-0.00848044
-0.0095213
-0.0105482
-0.0115659
-0.0125672
-0.0135506
-0.0145014
-0.0154238
-0.0163177
-0.0171775
-0.0179985
-0.0187749
-0.0195002
-0.0201785
-0.0208052
-0.0213758
-0.0218867
-0.0223334
-0.0227144
-0.0230292
-0.0232746
-0.0234466
-0.0235163
0.008003
0.00715636
0.00630638
0.00544459
0.00455715
0.00366804
0.00274942
0.00182275
0.000885227
-7.40035e-05
-0.00104033
-0.00201277
-0.0029945
-0.00399064
-0.00497697
-0.00596723
-0.00695776
-0.00794725
-0.00892362
-0.00988625
-0.0108392
-0.011776
-0.0126951
-0.0135833
-0.0144441
-0.0152774
-0.016078
-0.0168415
-0.0175627
-0.0182356
-0.0188637
-0.0194427
-0.0199684
-0.0204377
-0.0208461
-0.0211923
-0.0214756
-0.0216931
-0.021841
-0.0218911
0.00763255
0.00682884
0.00602132
0.00520276
0.0043609
0.00351723
0.00264697
0.00176944
0.000882147
-2.44505e-05
-0.000937139
-0.00185501
-0.00278079
-0.00371888
-0.00464749
-0.00557888
-0.00650964
-0.00743844
-0.00835433
-0.0092567
-0.010149
-0.0110255
-0.0118845
-0.0127141
-0.0135173
-0.0142939
-0.015039
-0.0157489
-0.0164185
-0.0170423
-0.0176234
-0.0181578
-0.0186416
-0.0190719
-0.0194445
-0.0197582
-0.0200121
-0.0202037
-0.020329
-0.0203608
0.00728782
0.00652484
0.00575768
0.00498023
0.00418162
0.00338112
0.00255667
0.00172566
0.000885911
2.90307e-05
-0.000833035
-0.00169943
-0.0025725
-0.00345596
-0.00433028
-0.00520632
-0.00608095
-0.00695281
-0.00781199
-0.00865786
-0.00949344
-0.0103134
-0.011116
-0.0118907
-0.01264
-0.0133636
-0.014057
-0.0147166
-0.015338
-0.015916
-0.0164531
-0.0169459
-0.0173906
-0.0177844
-0.0181237
-0.0184071
-0.0186336
-0.0188009
-0.0189052
-0.0189202
0.00696683
0.00624252
0.00551375
0.0047754
0.00401784
0.00325834
0.0024773
0.00169037
0.000895629
8.57308e-05
-0.000728531
-0.00154634
-0.00236971
-0.00320177
-0.00402497
-0.00484897
-0.00567087
-0.00648929
-0.00729525
-0.00808811
-0.00887049
-0.00963746
-0.0103875
-0.0111108
-0.0118096
-0.0124836
-0.0131286
-0.0137413
-0.0143175
-0.0148526
-0.0153488
-0.0158026
-0.0162109
-0.0165708
-0.016879
-0.0171341
-0.0173351
-0.0174799
-0.0175648
-0.0175645
0.00666779
0.00598019
0.00528795
0.00458677
0.00386819
0.00314765
0.00240777
0.0016626
0.000910488
0.000145001
-0.000624093
-0.00139602
-0.00217251
-0.00295617
-0.00373124
-0.00450629
-0.00527862
-0.00604686
-0.00680287
-0.007546
-0.0082785
-0.00899585
-0.00969652
-0.0103717
-0.0110233
-0.0116509
-0.0122506
-0.0128194
-0.0133535
-0.0138486
-0.0143065
-0.0147241
-0.0150983
-0.0154266
-0.0157059
-0.0159347
-0.0161122
-0.0162362
-0.0163033
-0.0162889
0.00638902
0.0057363
0.0050788
0.00441301
0.00373144
0.00304794
0.00234706
0.00164149
0.000929761
0.00020627
-0.000520136
-0.00124873
-0.00198099
-0.00271906
-0.00344879
-0.00417776
-0.00490349
-0.00562459
-0.0063337
-0.00703016
-0.00771588
-0.00838672
-0.00904118
-0.00967131
-0.0102787
-0.0108628
-0.0114203
-0.0119481
-0.0124428
-0.0129005
-0.0133227
-0.0137065
-0.014049
-0.0143479
-0.0146003
-0.0148049
-0.0149606
-0.0150655
-0.0151162
-0.0150893
0.006129
0.0055094
0.00488498
0.00425286
0.00360645
0.00295814
0.00229428
0.00162624
0.000952783
0.00026902
-0.000417036
-0.00110469
-0.0017952
-0.00249031
-0.00317732
-0.00386291
-0.0045448
-0.00522161
-0.00588668
-0.00653931
-0.00718115
-0.00780838
-0.00841955
-0.00900748
-0.00957346
-0.010117
-0.0106349
-0.0111244
-0.0115824
-0.0120051
-0.012394
-0.0127463
-0.0130594
-0.013331
-0.0135585
-0.0137405
-0.0138762
-0.0139636
-0.0139994
-0.0139614
0.00588633
0.0052982
0.00470525
0.00410517
0.00349216
0.00287732
0.00224857
0.00161613
0.000978944
0.000332773
-0.000315133
-0.000964108
-0.0016152
-0.00226981
-0.00291654
-0.00356129
-0.00420193
-0.00483711
-0.00546078
-0.00607227
-0.00667292
-0.00725926
-0.00782987
-0.00837825
-0.00890549
-0.00941102
-0.00989191
-0.0103457
-0.0107693
-0.0111595
-0.0115173
-0.0118403
-0.012126
-0.0123723
-0.0125767
-0.0127381
-0.0128553
-0.0129267
-0.0129492
-0.0129014
0.00565969
0.00510148
0.00453849
0.00396889
0.00338763
0.00280461
0.00220916
0.00161049
0.00100769
0.000397096
-0.000214729
-0.000827143
-0.00144101
-0.00205743
-0.00266619
-0.00327246
-0.00387428
-0.00447032
-0.00505508
-0.00562791
-0.00618992
-0.00673791
-0.00727051
-0.00778183
-0.00827278
-0.00874277
-0.00918908
-0.0096094
-0.010001
-0.0103608
-0.0106897
-0.0109855
-0.0112457
-0.0114685
-0.0116516
-0.0117939
-0.0118943
-0.0119511
-0.0119616
-0.0119055
0.00544787
0.00491811
0.00438363
0.00384306
0.00329196
0.00273919
0.00217536
0.00160872
0.00103852
0.000461602
-0.000116092
-0.00069394
-0.00127264
-0.00185306
-0.00242599
-0.00299601
-0.00356128
-0.0041205
-0.0046687
-0.00520521
-0.00573093
-0.00624294
-0.0067399
-0.0072165
-0.00767347
-0.00811021
-0.0085242
-0.0089133
-0.00927497
-0.00960648
-0.00990847
-0.0101788
-0.0104154
-0.0106165
-0.01078
-0.0109047
-0.0109897
-0.0110335
-0.0110333
-0.01097
0.00524979
0.00474707
0.00423974
0.00372679
0.00320435
0.00268035
0.00214651
0.00161026
0.00107097
0.000525944
-1.94571e-05
-0.000564621
-0.00111011
-0.00165655
-0.00219569
-0.00273155
-0.0032624
-0.00378699
-0.00430081
-0.00480317
-0.00529482
-0.00577307
-0.00623662
-0.00668068
-0.00710583
-0.00751146
-0.00789524
-0.00825516
-0.00858893
-0.00889402
-0.00917094
-0.00941773
-0.00963243
-0.00981343
-0.00995879
-0.0100674
-0.0101384
-0.0101703
-0.0101606
-0.0100914
0.00506439
0.0045874
0.0041059
0.00361924
0.00312405
0.0026274
0.00212203
0.00161462
0.00110465
0.000589808
7.49671e-05
-0.000439287
-0.000953387
-0.00146777
-0.00197504
-0.00247868
-0.00297712
-0.00346913
-0.00395061
-0.00442087
-0.00488052
-0.00532708
-0.0057593
-0.00617287
-0.00656822
-0.00694474
-0.00730027
-0.00763296
-0.00794068
-0.00822113
-0.00847471
-0.0086996
-0.00889398
-0.00905639
-0.00918504
-0.00927891
-0.0093371
-0.00935835
-0.00934036
-0.00926615
0.00489076
0.00443821
0.00398132
0.00351968
0.00305037
0.00257974
0.00210139
0.00162133
0.00113916
0.000652915
0.000166997
-0.000318021
-0.000802459
-0.00128659
-0.00176377
-0.00223706
-0.00270496
-0.00316631
-0.00361735
-0.00405744
-0.00448702
-0.00490383
-0.0053067
-0.00569168
-0.00605911
-0.00640838
-0.00673751
-0.00704476
-0.00732817
-0.00758566
-0.00781749
-0.00802202
-0.00819757
-0.00834277
-0.00845601
-0.00853633
-0.0085829
-0.00859458
-0.00856926
-0.00849101
0.00472799
0.0042987
0.00386521
0.00342739
0.0029827
0.00253679
0.00208409
0.00163
0.00117419
0.000715016
0.000256471
-0.000200887
-0.000657286
-0.00111286
-0.00156165
-0.00200631
-0.00244545
-0.00287793
-0.00330034
-0.00371205
-0.00411339
-0.00450229
-0.0048776
-0.00523579
-0.00557707
-0.00590083
-0.00620526
-0.00648874
-0.00674946
-0.00698552
-0.00719712
-0.00738272
-0.00754078
-0.00767006
-0.00776908
-0.00783697
-0.00787296
-0.00787601
-0.00784422
-0.00776269
0.00457529
0.00416811
0.00375691
0.00334174
0.00292044
0.00249804
0.00206969
0.00164023
0.00120942
0.000775892
0.000343256
-8.79343e-05
-0.000517827
-0.000946449
-0.00136844
-0.0017861
-0.00219813
-0.00260342
-0.0029989
-0.00338393
-0.00375874
-0.00412144
-0.00447092
-0.00480397
-0.00512074
-0.00542062
-0.00570194
-0.0059632
-0.00620274
-0.00641882
-0.00661155
-0.00677953
-0.00692136
-0.00703589
-0.00712178
-0.00717824
-0.00720455
-0.0071998
-0.00716229
-0.00707807
0.00443189
0.00404573
0.00365574
0.00326214
0.00286306
0.00246302
0.00205777
0.00165168
0.00124459
0.00083535
0.000427239
2.0803e-05
-0.000384037
-0.000787211
-0.00118391
-0.0015761
-0.00196258
-0.00234228
-0.0027124
-0.00307234
-0.00342224
-0.00376033
-0.00408557
-0.00439505
-0.00468885
-0.00496637
-0.00522605
-0.00546654
-0.0056863
-0.00588371
-0.00605886
-0.00621044
-0.00633718
-0.00643803
-0.00651176
-0.00655767
-0.00657511
-0.00656328
-0.00652065
-0.00643417
0.00429711
0.00393094
0.00356113
0.00318804
0.00281008
0.00243129
0.00204797
0.00166405
0.00127945
0.000893212
0.000508318
0.0001253
-0.000255859
-0.000635007
-0.00100782
-0.001376
-0.0017384
-0.00209401
-0.00244027
-0.00277661
-0.00310308
-0.00341807
-0.00372056
-0.00400793
-0.00428019
-0.00453676
-0.00477621
-0.00499726
-0.00519852
-0.00537851
-0.00553725
-0.00567355
-0.00578625
-0.00587437
-0.00593683
-0.00597298
-0.00598224
-0.00596391
-0.00591665
-0.00582821
0.00417028
0.00382311
0.00347251
0.00311893
0.00276104
0.00240244
0.00203994
0.00167706
0.00131378
0.000949326
0.000586407
0.000225542
-0.000133231
-0.000489694
-0.000839965
-0.00118549
-0.0015252
-0.00185812
-0.00218193
-0.00249607
-0.00280052
-0.0030938
-0.00337495
-0.00364158
-0.00389365
-0.00413059
-0.00435108
-0.00455395
-0.00473791
-0.00490161
-0.00504502
-0.00516707
-0.00526667
-0.00534294
-0.00539492
-0.00542201
-0.00542368
-0.00539934
-0.00534779
-0.00525754
0.00405081
0.00372171
0.00338937
0.00305436
0.00271553
0.00237611
0.00203336
0.00169044
0.00134737
0.00100355
0.000661435
0.000321526
-1.6088e-05
-0.000351132
-0.00068012
-0.00100427
-0.0013226
-0.00163416
-0.00193684
-0.00223009
-0.00251385
-0.00278674
-0.00304784
-0.00329501
-0.00352814
-0.00374669
-0.00394943
-0.00413528
-0.00430304
-0.00445152
-0.00458061
-0.00468933
-0.00477671
-0.00484192
-0.00488411
-0.00490274
-0.00489733
-0.00486737
-0.0048118
-0.00471978
0.00393814
0.00362621
0.00331125
0.00299388
0.00267315
0.00235197
0.00202796
0.00170396
0.00138006
0.00105578
0.000733342
0.000413254
9.56413e-05
-0.000219179
-0.000528076
-0.000832074
-0.00113025
-0.00142169
-0.00170449
-0.00197808
-0.00224239
-0.00249612
-0.00273841
-0.00296731
-0.00318268
-0.00338398
-0.00357009
-0.00374
-0.00389261
-0.00402682
-0.00414251
-0.00423878
-0.00431472
-0.00436959
-0.00440262
-0.00441332
-0.00440126
-0.00436599
-0.00430657
-0.00421276
0.00383176
0.00353614
0.00323769
0.0029371
0.00263357
0.0023297
0.00202346
0.00171742
0.00141168
0.00110589
0.000802084
0.000500741
0.000202032
-9.3694e-05
-0.000383629
-0.00066862
-0.000947799
-0.0012203
-0.00148437
-0.00173948
-0.0019855
-0.00222124
-0.00244587
-0.00265761
-0.00285631
-0.00304144
-0.00321197
-0.00336695
-0.00350537
-0.00362622
-0.00372936
-0.00381396
-0.00387919
-0.00392437
-0.0039488
-0.00395204
-0.00393368
-0.00389335
-0.0038302
-0.00373451
0.00373116
0.00345105
0.00316831
0.00288365
0.00259645
0.00230903
0.00201964
0.00173062
0.00144209