/*--------------------------------*- C++ -*----------------------------------*\
| =========                 |                                                 |
| \\      /  F ield         | OpenFOAM: The Open Source CFD Toolbox           |
|  \\    /   O peration     | Version:  3.0.1                                 |
|   \\  /    A nd           | Web:      www.OpenFOAM.org                      |
|    \\/     M anipulation  |                                                 |
\*---------------------------------------------------------------------------*/
FoamFile
{
    version     2.0;
    format      ascii;
    class       surfaceScalarField;
    location    "500";
    object      phi;
}
// * * * * * * * * * * * * * * * * * * * * * * * * * * * * * * * * * * * * * //

dimensions      [0 3 -1 0 0 0 0];

internalField   nonuniform List<scalar> 
115520
(
0.0109415
-0.00190804
-0.00903347
0.0123968
-0.00145532
0.0130061
-0.000609226
0.013161
-0.000154947
0.0130316
0.000129432
0.0127222
0.000309382
0.0123883
0.000333903
0.0120685
0.000319881
0.011762
0.000306475
0.0115416
0.00022042
0.0114068
0.000134787
0.0113222
8.45875e-05
0.0112853
3.68964e-05
0.0113303
-4.49615e-05
0.0114119
-8.16209e-05
0.0115158
-0.000103853
0.0116344
-0.000118677
0.0117755
-0.000141058
0.0119307
-0.000155166
0.0120847
-0.000154081
0.0122338
-0.000149025
0.0123748
-0.000141016
0.0125158
-0.000140969
0.0126494
-0.000133657
0.0127701
-0.000120723
0.0128769
-0.000106754
0.0129688
-9.18939e-05
0.013048
-7.92155e-05
0.0131174
-6.94345e-05
0.0131695
-5.20493e-05
0.0132034
-3.39375e-05
0.0132181
-1.46316e-05
0.0132115
6.59921e-06
0.0131815
3.00185e-05
0.0131071
7.43776e-05
0.0129949
0.000112156
0.0128634
0.000131494
0.0127296
0.000133874
0.0126117
0.000117885
8.85833e-05
0.0125231
0.00665838
-0.00308637
-0.00548005
0.00772386
-0.0025208
0.00872041
-0.00160577
0.00961499
-0.00104952
0.0103933
-0.000648919
0.0110481
-0.000345402
0.0115808
-0.000198799
0.0120047
-0.000103968
0.0123188
-7.67455e-06
0.0125721
-3.28076e-05
0.0127823
-7.53983e-05
0.0129422
-7.53747e-05
0.0130645
-8.53811e-05
0.0132085
-0.000188935
0.0133441
-0.000217247
0.0134707
-0.000230398
0.0135907
-0.000238763
0.0137256
-0.00027592
0.0138689
-0.000298494
0.0140065
-0.000291671
0.0141379
-0.000280379
0.0142618
-0.00026492
0.0143919
-0.000271066
0.0145173
-0.000259029
0.0146313
-0.000234718
0.014733
-0.000208465
0.0148215
-0.000180392
0.0148998
-0.000157595
0.0149721
-0.000141712
0.015029
-0.000108965
0.0150707
-7.56071e-05
0.0150979
-4.17929e-05
0.0151122
-7.71512e-06
0.0151179
2.42938e-05
0.015113
7.9307e-05
0.0150929
0.000132236
0.015058
0.000166436
0.015009
0.000182836
0.014947
0.000179926
0.000157416
0.0148781
0.00619127
-0.00413896
-0.00513868
0.00717634
-0.00350587
0.00809739
-0.00252682
0.00896362
-0.00191575
0.0097064
-0.0013917
0.0104042
-0.00104321
0.0109958
-0.000790378
0.011516
-0.000624172
0.0119766
-0.000468233
0.0123667
-0.000422921
0.0127038
-0.000412526
0.0129982
-0.000369778
0.0132541
-0.000341238
0.0134916
-0.000426422
0.0137096
-0.000435269
0.0139104
-0.000431241
0.0140975
-0.000425868
0.0142837
-0.000462038
0.0144672
-0.00048208
0.0146412
-0.000465582
0.0148056
-0.000444862
0.0149604
-0.000419637
0.0151139
-0.000424634
0.0152592
-0.000404288
0.0153917
-0.000367275
0.015511
-0.000327763
0.0156164
-0.000285771
0.0157097
-0.000250922
0.0157932
-0.000225146
0.01586
-0.000175821
0.01591
-0.000125525
0.0159425
-7.43261e-05
0.0159571
-2.23697e-05
0.0159558
2.56155e-05
0.0159392
9.59652e-05
0.0159049
0.000166495
0.0158551
0.000216268
0.0157912
0.000246748
0.0157129
0.000258239
0.000250695
0.0156196
0.00555944
-0.00502669
-0.00467171
0.00643599
-0.00438241
0.00729627
-0.00338709
0.00814167
-0.00276115
0.00891534
-0.00216536
0.00965994
-0.00178781
0.0103257
-0.00145608
0.0109349
-0.00123346
0.0114955
-0.00102882
0.0119934
-0.000920806
0.0124401
-0.000859248
0.0128442
-0.000773803
0.0132063
-0.000703332
0.0135357
-0.000755841
0.0138368
-0.000736419
0.0141118
-0.000706253
0.0143636
-0.000677579
0.014602
-0.000700489
0.0148287
-0.00070876
0.0150399
-0.000676829
0.0152366
-0.000641496
0.0154191
-0.00060215
0.0155952
-0.000600778
0.0157601
-0.000569138
0.0159103
-0.000517473
0.0160454
-0.000462931
0.0161652
-0.000405492
0.0162713
-0.000357049
0.016366
-0.000319826
0.0164434
-0.000253285
0.0165033
-0.000185413
0.0165453
-0.000116265
0.0165688
-4.59426e-05
0.0165755
1.89723e-05
0.0165654
0.000106071
0.0165356
0.000196332
0.0164869
0.000264928
0.0164205
0.000313173
0.0163368
0.000341868
0.000351653
0.0162359
0.00527234
-0.00584487
-0.00445416
0.00608923
-0.00519931
0.00690147
-0.00419932
0.00771704
-0.00357673
0.00848658
-0.00293489
0.00924906
-0.00255029
0.00995061
-0.00215764
0.0106092
-0.00189206
0.0112325
-0.00165208
0.0117973
-0.0014856
0.0123123
-0.00137429
0.0127885
-0.00124997
0.0132247
-0.00113951
0.0136185
-0.00114969
0.0139809
-0.00109878
0.0143142
-0.00103954
0.0146203
-0.000983703
0.0149048
-0.000984971
0.0151706
-0.000974617
0.0154171
-0.000923328
0.0156453
-0.000869647
0.0158559
-0.000812726
0.0160546
-0.000799543
0.0162388
-0.000753334
0.0164063
-0.000684964
0.016557
-0.000613574
0.0166905
-0.000539078
0.0168086
-0.000475058
0.0169127
-0.000423964
0.0169985
-0.000339094
0.0170657
-0.000252575
0.0171139
-0.00016448
0.0171429
-7.49091e-05
0.0171538
7.99003e-06
0.0171472
0.000112717
0.0171204
0.000223161
0.0170736
0.000311654
0.0170074
0.000379438
0.0169217
0.000427521
0.000456843
0.0168165
0.00507107
-0.00662172
-0.00429422
0.00585067
-0.00597892
0.00663042
-0.00497907
0.0074185
-0.00436482
0.008177
-0.00369339
0.0089387
-0.00331199
0.00965708
-0.00287601
0.0103453
-0.00258025
0.0110094
-0.00231622
0.0116241
-0.00210032
0.0121946
-0.00194472
0.0127307
-0.00178612
0.0132299
-0.00163872
0.013683
-0.00160279
0.014103
-0.0015188
0.014492
-0.00142852
0.0148509
-0.00134263
0.0151821
-0.00131611
0.0154891
-0.00128168
0.0157732
-0.00120743
0.0160354
-0.00113176
0.0162763
-0.00105371
0.0165005
-0.00102372
0.0167068
-0.0009596
0.0168939
-0.000872114
0.017062
-0.000781648
0.017211
-0.000688047
0.0173422
-0.000606248
0.0174572
-0.000538974
0.0175525
-0.000434426
0.0176279
-0.000327992
0.0176832
-0.000219752
0.0177181
-0.000109819
0.0177338
-7.71408e-06
0.0177307
0.000115811
0.0177066
0.000247324
0.0176614
0.000356808
0.0175954
0.000445442
0.0175087
0.000514283
0.000564401
0.0174011
0.00495285
-0.00737953
-0.00419504
0.00571381
-0.00673987
0.00647571
-0.00574097
0.00724632
-0.00513542
0.00799573
-0.00444281
0.00875234
-0.0040686
0.00947712
-0.00360079
0.0101808
-0.00328389
0.010869
-0.00300441
0.0115167
-0.00274803
0.0121266
-0.00255463
0.0127077
-0.00236728
0.0132566
-0.00218757
0.013759
-0.00210519
0.0142288
-0.00198859
0.0146675
-0.0018672
0.0150751
-0.00175027
0.0154509
-0.00169187
0.0157986
-0.00162941
0.0161207
-0.00152954
0.016418
-0.00142901
0.0166911
-0.00132685
0.0169428
-0.00127541
0.0171733
-0.00119015
0.0173823
-0.00108112
0.01757
-0.000969282
0.0177363
-0.000854411
0.0178825
-0.000752437
0.01801
-0.000666401
0.0181161
-0.000540596
0.0182009
-0.000412751
0.0182641
-0.000282955
0.0183056
-0.000151327
0.0183264
-2.85342e-05
0.018327
0.000115225
0.0183055
0.000268871
0.0182618
0.00040048
0.018196
0.000511181
0.0181083
0.000602029
0.000674115
0.0179986
0.00488417
-0.00813116
-0.00413255
0.00563858
-0.00749428
0.00639374
-0.00649612
0.0071563
-0.00589799
0.00790233
-0.00518884
0.00865599
-0.00482225
0.00938512
-0.00432993
0.0100987
-0.0039975
0.0108022
-0.00370785
0.0114726
-0.00341848
0.0121113
-0.00319328
0.0127261
-0.00298212
0.0133133
-0.00277476
0.0138562
-0.00264808
0.0143681
-0.00250051
0.01485
-0.00234909
0.0153011
-0.00220136
0.0157182
-0.00210898
0.0161048
-0.00201602
0.0164641
-0.00188876
0.0167963
-0.00176127
0.0171021
-0.00163264
0.0173826
-0.00155587
0.017639
-0.00144657
0.0178716
-0.00131372
0.0180806
-0.00117827
0.0182661
-0.00103995
0.0184291
-0.000915378
0.0185706
-0.000807969
0.0186892
-0.000659192
0.0187848
-0.000508298
0.0188572
-0.000355378
0.0189064
-0.00020056
0.0189334
-5.54555e-05
0.0189385
0.000110122
0.0189202
0.000287136
0.0188785
0.000442131
0.0188135
0.000576175
0.0187253
0.000690293
0.000785544
0.0186139
0.00485263
-0.00888548
-0.00409831
0.00560915
-0.0082508
0.00636589
-0.00725287
0.00712838
-0.00666047
0.00787693
-0.0059374
0.00863207
-0.00557739
0.00936714
-0.00506499
0.0100898
-0.00472021
0.0108052
-0.0044232
0.0114931
-0.00410637
0.0121539
-0.00385413
0.0127948
-0.00362294
0.0134119
-0.00339189
0.0139878
-0.00322404
0.0145349
-0.00304761
0.0150536
-0.00286776
0.0155425
-0.0026903
0.0159968
-0.00256327
0.0164194
-0.00243855
0.0168135
-0.00228292
0.0171794
-0.00212711
0.0175171
-0.00197034
0.0178264
-0.00186518
0.0181092
-0.00172941
0.0183662
-0.00157072
0.0185976
-0.00140961
0.0188034
-0.0012458
0.0189844
-0.00109632
0.0191414
-0.000964987
0.0192737
-0.000791479
0.0193812
-0.000615829
0.019464
-0.000438136
0.0195219
-0.000258532
0.0195559
-8.93893e-05
0.0195663
9.9696e-05
0.019552
0.000301427
0.019513
0.00048116
0.0194493
0.000639897
0.0193609
0.00077861
0.0008983
0.0192482
0.00484887
-0.0096488
-0.00408556
0.00561376
-0.00901569
0.00637833
-0.00801743
0.00714703
-0.00742917
0.00790334
-0.00669371
0.00866468
-0.00633873
0.00940867
-0.00580899
0.0101419
-0.00545348
0.0108691
-0.00515032
0.0115725
-0.00480984
0.0122524
-0.004534
0.0129148
-0.00428539
0.0135565
-0.00403357
0.0141603
-0.00382783
0.0147373
-0.00362454
0.0152874
-0.00341794
0.0158092
-0.00321205
0.0162965
-0.00305063
0.0167517
-0.00289375
0.0171782
-0.00270933
0.0175754
-0.0025244
0.0179435
-0.0023384
0.0182809
-0.00220257
0.0185899
-0.00203839
0.0188713
-0.00185217
0.0191253
-0.0016636
0.019352
-0.00147245
0.0195516
-0.00129594
0.0197249
-0.0011383
0.0198718
-0.000938329
0.0199922
-0.000736219
0.0200861
-0.000532076
0.0201536
-0.000326049
0.0201953
-0.000131102
0.0202118
8.32343e-05
0.0202021
0.00031111
0.0201663
0.000517006
0.0201043
0.000701848
0.0200164
0.000866544
0.00101202
0.0199027
0.00486712
-0.0104258
-0.00409009
0.00564517
-0.00979374
0.00642238
-0.00879464
0.00720229
-0.00820908
0.00797077
-0.00746218
0.00874262
-0.00711058
0.0094988
-0.00656516
0.010245
-0.00619967
0.0109853
-0.00589058
0.0117044
-0.00552902
0.0124024
-0.00523192
0.0130844
-0.00496749
0.0137477
-0.00469687
0.0143761
-0.00445614
0.0149792
-0.00422767
0.015557
-0.00399574
0.0161076
-0.00376269
0.0166246
-0.00356756
0.0171094
-0.00337862
0.0175654
-0.0031653
0.0179919
-0.00295086
0.0183884
-0.00273493
0.0187526
-0.00256681
0.019087
-0.00237271
0.0193923
-0.00215754
0.0196687
-0.00194
0.0199162
-0.0017199
0.0201347
-0.00151444
0.0203247
-0.00132833
0.0204866
-0.00110022
0.0206203
-0.000869981
0.020726
-0.000637738
0.0208036
-0.000403653
0.0208536
-0.000181133
0.0208767
6.02114e-05
0.0208721
0.000315706
0.0208398
0.000549237
0.02078
0.000761645
0.0206928
0.000953762
0.00112643
0.0205784
0.00490343
-0.0112203
-0.00410895
0.00569843
-0.0105887
0.00649213
-0.00958835
0.00728729
-0.00900424
0.00807162
-0.00824651
0.00885775
-0.00789671
0.00962923
-0.00733665
0.0103909
-0.00696137
0.0111464
-0.00664605
0.0118824
-0.00626503
0.0125987
-0.00594821
0.0133
-0.00566879
0.0139837
-0.00538055
0.0146348
-0.00510724
0.0152619
-0.00485481
0.0158648
-0.00459863
0.0164415
-0.00433941
0.0169854
-0.00411141
0.0174975
-0.00389071
0.0179807
-0.00364852
0.0184342
-0.00340437
0.0188574
-0.00315807
0.0192471
-0.00295652
0.0196057
-0.00273134
0.0199342
-0.00248605
0.0202324
-0.00223823
0.0205003
-0.00198775
0.0207375
-0.00175168
0.0209443
-0.00153512
0.0211214
-0.0012773
0.0212687
-0.00101734
0.0213864
-0.000755388
0.0214744
-0.000491639
0.0215331
-0.000239809
0.021563
3.02904e-05
0.0215638
0.000314906
0.0215354
0.000577573
0.0214781
0.00081904
0.0213918
0.00104006
0.00124137
0.0212768
0.00495506
-0.0120353
-0.00414003
0.00577014
-0.0114038
0.00658352
-0.0104017
0.00739729
-0.00981801
0.00820061
-0.00904983
0.00900427
-0.00870037
0.00979392
-0.0081263
0.0105737
-0.00774113
0.0113466
-0.00741897
0.0121011
-0.00701952
0.0128368
-0.00668389
0.0135578
-0.00638978
0.0142617
-0.00608451
0.0149349
-0.00578046
0.015585
-0.00550487
0.0162115
-0.00522513
0.0168125
-0.00494046
0.0173815
-0.00468035
0.017919
-0.00442823
0.0184277
-0.0041572
0.0189065
-0.00388319
0.0193546
-0.00360619
0.0197685
-0.00337043
0.0201504
-0.00311322
0.0205012
-0.0028368
0.0208205
-0.00255756
0.0211082
-0.00227546
0.0213638
-0.00200727
0.0215872
-0.00175852
0.0217794
-0.0014695
0.0219403
-0.00117829
0.02207
-0.000885079
0.0221685
-0.000590101
0.022236
-0.000307267
0.0222729
-6.69313e-06
0.0222793
0.000308558
0.022255
0.000601879
0.0222001
0.000873919
0.0221148
0.00112534
0.00135679
0.0219994
0.00502004
-0.0128736
-0.00418183
0.0058579
-0.0122417
0.0066937
-0.0112375
0.00752894
-0.0106533
0.00835397
-0.00987486
0.00917803
-0.00952442
0.00998844
-0.00893672
0.0107887
-0.00854136
0.0115813
-0.00821161
0.0123561
-0.00779428
0.0131125
-0.00744034
0.0138542
-0.00713147
0.014579
-0.00680931
0.0152744
-0.00647589
0.0159471
-0.00617757
0.0165966
-0.00587463
0.017221
-0.00556488
0.017814
-0.00527327
0.0183757
-0.00499
0.0189086
-0.00469008
0.0194114
-0.00438603
0.0198833
-0.00407802
0.0203203
-0.00380744
0.0207245
-0.0035174
0.0210966
-0.00320896
0.0214363
-0.00289727
0.0217433
-0.0025824
0.0220168
-0.00228075
0.0222565
-0.00199825
0.0224636
-0.0016766
0.022638
-0.00135267
0.0227796
-0.00102671
0.0228885
-0.000698979
0.0229647
-0.000383495
0.0230088
-5.07627e-05
0.0230207
0.000296645
0.0230004
0.000622145
0.0229481
0.000926287
0.0228638
0.00120963
0.00147273
0.0227478
0.00509699
-0.0137373
-0.00423324
0.00596002
-0.0131047
0.00682065
-0.0120982
0.00767989
-0.0115125
0.00852906
-0.010724
0.00937605
-0.0103714
0.0102096
-0.00977024
0.0110325
-0.00936431
0.011847
-0.00902613
0.012644
-0.0085912
0.0134227
-0.0082191
0.0141864
-0.00789514
0.014933
-0.00755592
0.0156512
-0.0071941
0.0163468
-0.00687317
0.0170193
-0.00654708
0.0176668
-0.00621237
0.0182832
-0.00588964
0.0188685
-0.00557534
0.0194248
-0.00524637
0.0199508
-0.00491204
0.0204454
-0.00457266
0.0209047
-0.00426674
0.0213305
-0.00394313
0.0217233
-0.00360182
0.0220828
-0.00325672
0.0224084
-0.00290801
0.0226993
-0.00257166
0.022955
-0.00225395
0.0231767
-0.00189832
0.0233643
-0.00154027
0.0235177
-0.00118009
0.0236368
-0.000818115
0.0237217
-0.000468379
0.0237728
-0.000101837
0.0237902
0.000279251
0.0237739
0.000638465
0.0237239
0.000976248
0.0236405
0.00129306
0.00158935
0.0235239
0.00518488
-0.0146288
-0.00429343
0.00607525
-0.0139951
0.00696293
-0.0129858
0.00784846
-0.012398
0.00872397
-0.0115995
0.00959621
-0.0112437
0.010455
-0.0106291
0.0113028
-0.0102121
0.0121413
-0.00986462
0.0129622
-0.00941212
0.0137649
-0.00902183
0.0145521
-0.00868227
0.0153217
-0.00832559
0.0160636
-0.00793597
0.0167828
-0.00759232
0.0174786
-0.00724288
0.0181493
-0.00688307
0.018789
-0.00652941
0.0193977
-0.00618405
0.0199771
-0.0058257
0.0205257
-0.00546073
0.0210426
-0.00508955
0.0215237
-0.00474779
0.0219704
-0.00438989
0.0223835
-0.00401485
0.0227621
-0.0036354
0.0231059
-0.0032518
0.0234139
-0.00287957
0.0236852
-0.0025253
0.0239213
-0.00213437
0.0241218
-0.00174081
0.0242867
-0.00134499
0.0244159
-0.000947294
0.0245092
-0.000561735
0.0245672
-0.00015976
0.0245899
0.000256538
0.0245773
0.000651007
0.0245296
0.00102398
0.0244468
0.00137582
0.00170686
0.0243293
0.00528295
-0.0155499
-0.00436177
0.00620272
-0.0149149
0.00711949
-0.0139026
0.00803345
-0.013312
0.00893737
-0.0125035
0.009837
-0.0121433
0.0107232
-0.0115152
0.0115978
-0.0110867
0.0124622
-0.0107291
0.013309
-0.0102589
0.0141373
-0.00985017
0.0149494
-0.00949437
0.0157435
-0.00911969
0.0165101
-0.0087026
0.0172537
-0.00833588
0.0179735
-0.00796271
0.0186679
-0.00757746
0.0193313
-0.00719284
0.0199635
-0.00681623
0.0205659
-0.00642806
0.0211371
-0.00603194
0.021676
-0.00562842
0.0221785
-0.0052503
0.0226459
-0.00485735
0.0230788
-0.00444771
0.0234763
-0.00403294
0.0238379
-0.00361342
0.0241625
-0.00320415
0.0244493
-0.00281203
0.0246994
-0.00238448
0.0249126
-0.00195404
0.0250888
-0.00152115
0.0252277
-0.00108628
0.0253294
-0.000663349
0.0253939
-0.000224332
0.0254218
0.000228714
0.0254128
0.000659995
0.025367
0.00106973
0.0252847
0.00145817
0.00182554
0.025166
0.00539066
-0.0165028
-0.00443783
0.00634178
-0.015866
0.00728962
-0.0148504
0.00823401
-0.0142564
0.0091683
-0.0134377
0.0100974
-0.0130724
0.0110128
-0.0124307
0.0119162
-0.01199
0.0128085
-0.0116214
0.0136828
-0.0111332
0.0145384
-0.0107058
0.0153771
-0.010333
0.016197
-0.00993964
0.0169896
-0.0094952
0.0177587
-0.00910494
0.0185035
-0.00870748
0.0192223
-0.00829625
0.0199099
-0.00788048
0.0205659
-0.00747227
0.0211916
-0.00705368
0.0217854
-0.00662581
0.0223463
-0.00618928
0.0228702
-0.0057742
0.0233582
-0.0053454
0.0238108
-0.00490022
0.024227
-0.00444914
0.0246062
-0.00399263
0.0249472
-0.00354517
0.0252491
-0.00311391
0.025513
-0.00264843
0.0257387
-0.00217974
0.0259259
-0.00170836
0.0260745
-0.00123485
0.0261841
-0.000772996
0.0262551
-0.000295337
0.0262878
0.000196016
0.0262821
0.000665681
0.0262381
0.00111376
0.0261559
0.0015404
0.00194572
0.0260357
0.00550763
-0.0174891
-0.00452127
0.006492
-0.0168504
0.00747281
-0.0158313
0.00844958
-0.0152331
0.00941613
-0.0144043
0.0103766
-0.0140328
0.0113232
-0.0133773
0.0122572
-0.012924
0.0131792
-0.0125434
0.0140829
-0.012037
0.0149675
-0.0115903
0.0158342
-0.0111998
0.0166816
-0.010787
0.0175015
-0.0103151
0.0182972
-0.00990065
0.0190679
-0.00947821
0.019812
-0.00904035
0.0205246
-0.00859306
0.0212051
-0.00815275
0.0218544
-0.00770302
0.0224713
-0.00724265
0.0230543
-0.00677235
0.0235998
-0.00631964
0.0241085
-0.0058541
0.0245806
-0.00537239
0.0250154
-0.00488394
0.0254121
-0.00438932
0.0257695
-0.00390249
0.0260864
-0.00343083
0.026364
-0.00292607
0.026602
-0.00241773
0.0268001
-0.00190643
0.026958
-0.00139278
0.0270755
-0.000890461
0.0271527
-0.000372552
0.02719
0.00015869
0.0271873
0.000668339
0.0271447
0.00115638
0.0270623
0.00162285
0.00206774
0.0269403
0.00563361
-0.0185109
-0.00461184
0.0066531
-0.0178698
0.00766875
-0.0168469
0.0086798
-0.0162442
0.00968048
-0.015405
0.0106742
-0.0150265
0.0116539
-0.014357
0.0126202
-0.0138903
0.0135738
-0.0134969
0.0145087
-0.0129719
0.0154238
-0.0125055
0.0163203
-0.0120963
0.0171965
-0.0116632
0.0180451
-0.0111636
0.0188687
-0.0107243
0.0196666
-0.0102761
0.020437
-0.00981079
0.0211754
-0.00933146
0.0218811
-0.00885842
0.0225548
-0.00837672
0.0231951
-0.00788299
0.0238008
-0.00737804
0.0243681
-0.00688691
0.0248977
-0.00638369
0.0253896
-0.00586437
0.0258431
-0.00533742
0.0262573
-0.00480351
0.0266309
-0.00427609
0.0269628
-0.00376274
0.0272541
-0.00321731
0.0275042
-0.0026679
0.027713
-0.00211519
0.0278801
-0.00155991
0.0280052
-0.00101555
0.0280884
-0.000455765
0.0281302
0.000116981
0.0281302
0.000668246
0.0280887
0.0011979
0.0280057
0.00170585
0.00219199
0.0278815
0.00576843
-0.0195699
-0.00470941
0.00682489
-0.0189263
0.00787725
-0.0178993
0.00892446
-0.0172914
0.00996112
-0.0164416
0.01099
-0.0160554
0.0120045
-0.0153715
0.0130051
-0.0148909
0.013992
-0.0144839
0.0149598
-0.0139396
0.0159071
-0.0134529
0.016835
-0.0130242
0.0177417
-0.0125699
0.0186203
-0.0120422
0.0194732
-0.0115772
0.0202994
-0.0111023
0.0210973
-0.0106087
0.0218625
-0.0100967
0.0225943
-0.00959015
0.0232931
-0.00907553
0.0239576
-0.00854748
0.0245864
-0.00800689
0.025176
-0.00747647
0.0257268
-0.00693452
0.0262389
-0.00637644
0.0267112
-0.0058098
0.0271431
-0.00523536
0.0275331
-0.00466607
0.02788
-0.00410968
0.0281848
-0.00352216
0.0284471
-0.00293019
0.0286665
-0.00233457
0.0288427
-0.00173609
0.0289753
-0.00114809
0.0290643
-0.000544779
0.0291101
7.11252e-05
0.0291127
0.000665676
0.029072
0.00123863
0.0289881
0.00178976
0.00231886
0.0288612
0.00591202
-0.0206681
-0.00481388
0.00700732
-0.0200216
0.00809824
-0.0189902
0.0091835
-0.0183767
0.010258
-0.0175161
0.0113239
-0.0171213
0.0123751
-0.0164227
0.0134118
-0.0159276
0.0144338
-0.0155059
0.0154361
-0.0149419
0.0164175
-0.0144342
0.0173784
-0.0139851
0.0183171
-0.0135086
0.0192272
-0.0129523
0.0201107
-0.0124607
0.0209666
-0.0119582
0.0217932
-0.0114353
0.0225863
-0.0108898
0.0233451
-0.0103489
0.0240699
-0.00980032
0.0247593
-0.0092369
0.025412
-0.00865956
0.0260244
-0.00808889
0.0265969
-0.00750707
0.0271295
-0.006909
0.0276211
-0.00630138
0.0280708
-0.00568509
0.0284773
-0.00507259
0.0288394
-0.00447177
0.0291579
-0.00384067
0.0294324
-0.00320462
0.0296623
-0.00256452
0.0298475
-0.00192125
0.0299873
-0.00128796
0.030082
-0.000639425
0.0301318
2.13398e-05
0.0301365
0.000660896
0.0300963
0.00127887
0.0300111
0.00187494
0.00244875
0.0298812
0.00606434
-0.0218072
-0.0049252
0.00720037
-0.0211576
0.00833175
-0.0201216
0.00945695
-0.0195019
0.0105711
-0.0186303
0.011676
-0.0182262
0.0127657
-0.0175124
0.0138402
-0.0170021
0.0148992
-0.016565
0.0159379
-0.0159806
0.0169549
-0.0154511
0.0179504
-0.0149807
0.0189228
-0.014481
0.019866
-0.0138955
0.0207816
-0.0133763
0.0216685
-0.0128451
0.022525
-0.0122918
0.0233472
-0.011712
0.0241341
-0.0111358
0.0248858
-0.0105521
0.025601
-0.0099521
0.0262783
-0.00933685
0.0269143
-0.00872485
0.0275091
-0.00810192
0.0280627
-0.00746253
0.0285739
-0.00681259
0.0290418
-0.00615305
0.0294652
-0.00549591
0.0298426
-0.00484921
0.0301749
-0.00417297
0.0304615
-0.00349126
0.0307021
-0.00280505
0.0308961
-0.00211532
0.0310432
-0.00143504
0.0311434
-0.000739558
0.0311969
-3.21766e-05
0.0312036
0.000654155
0.0311635
0.00131895
0.0310767
0.00196173
0.00258206
0.0309434
0.00622545
-0.0229893
-0.00504339
0.00740413
-0.0223363
0.00857788
-0.0212953
0.00974494
-0.0206689
0.0109007
-0.0197861
0.0120464
-0.0193718
0.0131765
-0.0186425
0.0142907
-0.0181163
0.0153885
-0.0176628
0.0164653
-0.0170574
0.0175197
-0.0165055
0.0185516
-0.0160126
0.0195593
-0.0154887
0.020537
-0.0148733
0.0214862
-0.0143254
0.0224055
-0.0137644
0.0232934
-0.0131796
0.0241458
-0.0125645
0.024962
-0.0119519
0.0257417
-0.0113319
0.0264837
-0.0106941
0.0271865
-0.0100396
0.0278467
-0.0093851
0.0284645
-0.00871976
0.0290397
-0.00803764
0.029571
-0.00734392
0.0300576
-0.00663964
0.030498
-0.00593637
0.0308911
-0.00524228
0.0312374
-0.00451927
0.0315364
-0.00379023
0.0317875
-0.00305622
0.0319905
-0.0023183
0.0321448
-0.0015893
0.0322503
-0.000845062
0.0323074
-8.92483e-05
0.0323158
0.000645688
0.0322756
0.00135913
0.0321869
0.0020505
0.00271921
0.0320497
0.00639542
-0.0242162
-0.00516848
0.00761872
-0.0235596
0.00883679
-0.0225134
0.0100477
-0.0218798
0.0112469
-0.0209853
0.0124354
-0.0205603
0.0136078
-0.0198149
0.0147636
-0.0192721
0.015902
-0.0188013
0.0170188
-0.0181741
0.0181123
-0.0175989
0.0191822
-0.0170826
0.0202269
-0.0165334
0.0212409
-0.0158873
0.0222252
-0.0153097
0.0231784
-0.0147176
0.0240989
-0.0141001
0.024983
-0.0134486
0.0258296
-0.0127985
0.0266385
-0.0121408
0.0274082
-0.0114638
0.0281374
-0.0107688
0.0288228
-0.0100705
0.0294644
-0.00936134
0.0300617
-0.00863498
0.0306138
-0.00789595
0.0311195
-0.00714537
0.0315775
-0.00639439
0.0319865
-0.00565129
0.0323471
-0.00487983
0.0326586
-0.00410172
0.0329205
-0.00331814
0.0331324
-0.00253025
0.0332938
-0.00175069
0.0334046
-0.000955849
0.0334651
-0.000149722
0.0334751
0.000635714
0.0334345
0.00139972
0.0333434
0.00214158
0.00286058
0.033202
0.00657439
-0.02549
-0.00530055
0.00784431
-0.0248295
0.0091087
-0.0237778
0.0103654
-0.0231365
0.0116102
-0.0222301
0.0128433
-0.0217934
0.01406
-0.0210316
0.0152592
-0.0204713
0.0164403
-0.0199824
0.0175988
-0.0193327
0.0187332
-0.0187333
0.0198431
-0.0181924
0.0209265
-0.0176168
0.0219783
-0.0169391
0.0229992
-0.0163306
0.0239879
-0.0157063
0.0249425
-0.0150548
0.0258596
-0.0143656
0.0267379
-0.0136768
0.0275771
-0.01298
0.0283758
-0.0122625
0.0291324
-0.0115254
0.0298438
-0.010782
0.03051
-0.0100275
0.0311303
-0.0092553
0.0317037
-0.00846933
0.0322291
-0.00767079
0.0327052
-0.00687044
0.0331305
-0.00607666
0.0335056
-0.00525494
0.0338299
-0.00442596
0.0341027
-0.00359097
0.0343237
-0.00275123
0.0344922
-0.00191923
0.0346082
-0.00107186
0.034672
-0.000213468
0.0346833
0.000624431
0.034642
0.00144097
0.0345483
0.0022353
0.00300659
0.0344023
0.00676251
-0.0268128
-0.00543971
0.00808111
-0.0261481
0.00939389
-0.0250906
0.0106985
-0.0244411
0.0119907
-0.0235224
0.0132706
-0.0230733
0.0145335
-0.0222944
0.0157782
-0.0217161
0.0170038
-0.0212079
0.018206
-0.0205349
0.0193832
-0.0199105
0.0205347
-0.0193439
0.0216586
-0.0187406
0.0227499
-0.0180305
0.0238092
-0.0173898
0.0248348
-0.016732
0.0258251
-0.0160451
0.0267766
-0.0153171
0.027688
-0.0145881
0.0285588
-0.0138508
0.0293875
-0.0130912
0.0301726
-0.0123105
0.0309111
-0.0115205
0.0316027
-0.0107191
0.0322468
-0.0098994
0.0328423
-0.00906479
0.033388
-0.00821654
0.0338826
-0.00736505
0.0343248
-0.00651882
0.0347148
-0.00564499
0.0350521
-0.00476324
0.0353361
-0.00387491
0.0355662
-0.00298137
0.0357419
-0.00209497
0.0358631
-0.00119307
0.0359301
-0.00028038
0.0359425
0.000612021
0.0359003
0.00148314
0.0358036
0.002332
0.00315764
0.0356526
0.00695998
-0.0281867
-0.00558608
0.00832939
-0.0275175
0.00969267
-0.0264538
0.0110472
-0.0257957
0.0123891
-0.0248642
0.0137178
-0.0244021
0.015029
-0.0236055
0.0163212
-0.0230083
0.0175932
-0.02248
0.0188411
-0.0217828
0.0200629
-0.0211323
0.021258
-0.0205389
0.0224242
-0.0199068
0.0235568
-0.0191631
0.0246561
-0.0184891
0.0257203
-0.0177962
0.0267478
-0.0170725
0.0277352
-0.0163045
0.028681
-0.0155339
0.0295847
-0.0147545
0.0304447
-0.0139512
0.0312595
-0.0131253
0.0320261
-0.0122871
0.0327441
-0.0114371
0.0334128
-0.0105681
0.0340311
-0.00968309
0.0345979
-0.00878329
0.0351117
-0.00787883
0.0355711
-0.00697829
0.0359765
-0.00605039
0.0363272
-0.00511388
0.0366225
-0.0041702
0.0368619
-0.00322084
0.0370449
-0.00227797
0.0371713
-0.00131946
0.0372413
-0.000350373
0.0372547
0.000598648
0.0372114
0.00152647
0.0371114
0.002432
0.00331411
0.0369549
0.00716702
-0.0296139
-0.00573983
0.00858943
-0.02894
0.0100054
-0.0278698
0.0114121
-0.0272024
0.0128058
-0.0262578
0.0141855
-0.0257818
0.0155469
-0.024967
0.0168887
-0.02435
0.0182093
-0.0238005
0.0195048
-0.0230783
0.0207733
-0.0224008
0.0220138
-0.0217794
0.0232242
-0.0211172
0.0243999
-0.0203389
0.0255409
-0.01963
0.0266455
-0.0189008
0.0277118
-0.0181388
0.0287365
-0.0173292
0.0297182
-0.0165156
0.0306562
-0.0156925
0.0315488
-0.0148438
0.0323945
-0.013971
0.0331903
-0.0130829
0.0339357
-0.0121825
0.03463
-0.0112625
0.035272
-0.0103251
0.0358605
-0.00937179
0.0363941
-0.00841242
0.0368714
-0.00745562
0.0372926
-0.0064716
0.037657
-0.00547826
0.037964
-0.00447713
0.0382129
-0.00346981
0.0384033
-0.00246834
0.0385349
-0.00145107
0.0386079
-0.000423383
0.0386221
0.00058446
0.0385774
0.0015712
0.0384738
0.0025356
0.0034764
0.0383115
0.00738389
-0.0310967
-0.00590113
0.00886157
-0.0304176
0.0103325
-0.0293407
0.0117936
-0.0286636
0.0132412
-0.0277054
0.0146741
-0.0272147
0.0160881
-0.026381
0.0174816
-0.0257434
0.0188528
-0.0251718
0.0201981
-0.0244236
0.0215152
-0.023718
0.0228032
-0.0230673
0.0240597
-0.0223737
0.0252803
-0.0215596
0.0264649
-0.0208146
0.0276115
-0.0200475
0.0287183
-0.0192457
0.029782
-0.018393
0.0308012
-0.0175348
0.0317749
-0.0166662
0.0327014
-0.0157704
0.0335792
-0.0148487
0.0344054
-0.013909
0.0351793
-0.0129564
0.0359002
-0.0119833
0.0365667
-0.0109916
0.0371778
-0.00998283
0.0377318
-0.00896651
0.0382276
-0.00795139
0.0386652
-0.00690913
0.0390437
-0.00585678
0.0393626
-0.00479602
0.0396213
-0.00372852
0.0398192
-0.00266623
0.039956
-0.00158794
0.040032
-0.000499367
0.0400469
0.000569589
0.0400005
0.00161754
0.039893
0.00264311
0.00364491
0.0397245
0.00761086
-0.0326374
-0.00607019
0.00914616
-0.0319529
0.0106743
-0.0308689
0.0121922
-0.0301815
0.0136961
-0.0292093
0.0151844
-0.028703
0.0166532
-0.0278498
0.0181006
-0.0271908
0.0195247
-0.0265959
0.0209218
-0.0258207
0.0222897
-0.025086
0.0236271
-0.0244047
0.0249317
-0.0236783
0.0261993
-0.0228271
0.0274292
-0.0220445
0.0286197
-0.021238
0.0297688
-0.0203947
0.0308732
-0.0194974
0.0319313
-0.0185929
0.0329422
-0.0176771
0.0339041
-0.0167323
0.0348153
-0.01576
0.035673
-0.0147668
0.0364766
-0.01376
0.0372251
-0.0127318
0.0379171
-0.0116836
0.0385515
-0.0106173
0.0391269
-0.00954185
0.0396418
-0.00846628
0.0400962
-0.00736353
0.0404893
-0.00624991
0.0408205
-0.00512722
0.0410892
-0.00399723
0.0412948
-0.00287179
0.0414369
-0.00173013
0.0415159
-0.000578299
0.0415313
0.000554156
0.0414831
0.00166571
0.0413714
0.00275485
0.00382002
0.0411963
0.00784824
-0.0342384
-0.00624722
0.00944359
-0.0335483
0.0110315
-0.0324568
0.0126085
-0.0317585
0.014171
-0.0307718
0.0157172
-0.0302492
0.0172431
-0.0293757
0.0187466
-0.0286943
0.0202258
-0.0280751
0.021677
-0.0272719
0.0230979
-0.0265068
0.0244868
-0.0257937
0.0258416
-0.0250331
0.0271581
-0.0241436
0.0284354
-0.0233218
0.0296716
-0.0224742
0.0308646
-0.0215878
0.0320114
-0.0206441
0.0331102
-0.0196916
0.0341598
-0.0187267
0.0351585
-0.017731
0.0361045
-0.016706
0.0369952
-0.0156575
0.0378296
-0.0145944
0.0386067
-0.0135089
0.0393252
-0.0124022
0.0399839
-0.011276
0.0405813
-0.0101392
0.041116
-0.00900095
0.0415879
-0.00783538
0.0419961
-0.00665813
0.04234
-0.00547112
0.042619
-0.00427623
0.0428324
-0.00308521
0.04298
-0.00187773
0.0430619
-0.000660169
0.0430777
0.000538265
0.0430275
0.00171591
0.0429113
0.0028711
0.00400214
0.0427292
0.00809637
-0.0359023
-0.00643248
0.00975427
-0.0352062
0.0114043
-0.0341068
0.013043
-0.0333971
0.0146666
-0.0323954
0.016273
-0.0318556
0.0178584
-0.0309611
0.0194205
-0.0302564
0.0209572
-0.0296118
0.0224648
-0.0287795
0.0239408
-0.0279828
0.0253836
-0.0272365
0.0267907
-0.0264402
0.0281581
-0.025511
0.0294847
-0.0246484
0.0307686
-0.0237581
0.0320075
-0.0228267
0.0331985
-0.0218351
0.0343395
-0.0208327
0.0354295
-0.0198167
0.0364666
-0.018768
0.0374489
-0.0176883
0.0383737
-0.0165823
0.0392402
-0.0154608
0.0400471
-0.0143159
0.0407932
-0.0131483
0.0414771
-0.0119599
0.0420974
-0.0107595
0.0426526
-0.00955615
0.0431425
-0.00832531
0.0435664
-0.00708197
0.0439234
-0.00582813
0.044213
-0.00456582
0.0444345
-0.0033067
0.0445876
-0.00203086
0.0446724
-0.000744985
0.0446886
0.000522013
0.0446362
0.00176833
0.0445152
0.00299216
0.00419166
0.0443256
0.00835559
-0.0376317
-0.0066262
0.0100787
-0.0369293
0.0117935
-0.0358217
0.0134964
-0.0351