/*--------------------------------*- C++ -*----------------------------------*\
| =========                 |                                                 |
| \\      /  F ield         | OpenFOAM: The Open Source CFD Toolbox           |
|  \\    /   O peration     | Version:  3.0.1                                 |
|   \\  /    A nd           | Web:      www.OpenFOAM.org                      |
|    \\/     M anipulation  |                                                 |
\*---------------------------------------------------------------------------*/
FoamFile
{
    version     2.0;
    format      ascii;
    class       volVectorField;
    location    "500";
    object      U;
}
// * * * * * * * * * * * * * * * * * * * * * * * * * * * * * * * * * * * * * //

dimensions      [0 1 -1 0 0 0 0];

internalField   nonuniform List<vector> 
58000
(
(0.4497 0.82787 -1.04728e-20)
(0.580651 0.955367 4.50006e-21)
(0.710803 1.00306 1.71338e-20)
(0.825313 0.991592 -3.51168e-20)
(0.918629 0.944863 1.36359e-20)
(0.987325 0.875183 1.08288e-20)
(1.041 0.798445 0)
(1.08041 0.723192 -1.53667e-20)
(1.10966 0.648845 3.94985e-20)
(1.13303 0.579984 1.19289e-20)
(1.15115 0.519667 -2.68591e-20)
(1.16457 0.465725 0)
(1.17432 0.416707 0)
(1.1826 0.375225 1.07635e-20)
(1.18696 0.340419 0)
(1.18894 0.310044 -1.0147e-19)
(1.18902 0.283125 1.00217e-19)
(1.18826 0.259626 -1.08478e-20)
(1.1866 0.239473 8.38286e-20)
(1.18385 0.221612 -8.31846e-20)
(1.18057 0.205319 -8.00775e-20)
(1.17656 0.190077 7.94479e-20)
(1.17263 0.176141 0)
(1.16827 0.163593 7.45013e-20)
(1.16343 0.151969 -7.40929e-20)
(1.15834 0.140985 7.15959e-20)
(1.15294 0.13048 3.34266e-21)
(1.1473 0.120437 -6.99165e-20)
(1.14183 0.111171 0)
(1.1359 0.1026 4.07257e-21)
(1.1297 0.0944649 -3.66741e-20)
(1.12322 0.0867452 6.88534e-20)
(1.11619 0.0794693 -5.39336e-22)
(1.10868 0.0728066 -2.98036e-20)
(1.09959 0.0666109 -1.44058e-20)
(1.08801 0.060747 1.54768e-20)
(1.07511 0.0553041 9.4789e-22)
(1.06287 0.0504537 9.2535e-22)
(1.05175 0.0459779 -2.78951e-21)
(1.04673 0.0425198 4.80699e-21)
(0.60028 0.466734 -4.16319e-21)
(0.688939 0.529321 9.21664e-22)
(0.778824 0.575519 0)
(0.866487 0.609794 -1.27567e-21)
(0.949285 0.631942 -4.34661e-21)
(1.02766 0.641024 -4.62839e-21)
(1.09724 0.635484 4.57128e-21)
(1.15506 0.619715 1.15193e-20)
(1.20436 0.594809 -1.27529e-20)
(1.24271 0.563485 0)
(1.27011 0.530278 3.41045e-20)
(1.28984 0.495715 -1.01406e-19)
(1.30296 0.459452 -2.19188e-21)
(1.31004 0.425421 3.96277e-21)
(1.31337 0.39459 1.13896e-19)
(1.31406 0.365106 -7.13918e-20)
(1.31254 0.336797 5.04723e-20)
(1.30947 0.310867 -1.16121e-19)
(1.30553 0.28793 -6.55053e-21)
(1.30092 0.266889 5.73836e-20)
(1.29572 0.247045 6.85391e-21)
(1.29004 0.228247 0)
(1.28428 0.211133 0)
(1.27858 0.195786 0)
(1.27278 0.181441 0)
(1.26681 0.167763 5.93559e-20)
(1.26069 0.154691 -5.29428e-20)
(1.2545 0.142342 0)
(1.24849 0.131071 2.85423e-20)
(1.24257 0.120649 -4.9545e-22)
(1.23659 0.110695 -2.19814e-20)
(1.23057 0.101202 -3.17958e-21)
(1.22463 0.0921966 2.13791e-20)
(1.21908 0.0838076 -2.5976e-20)
(1.21422 0.0760155 0)
(1.20962 0.068821 -1.44821e-21)
(1.20502 0.0622507 1.43101e-21)
(1.20062 0.0563358 -7.31696e-22)
(1.19659 0.0506852 -2.841e-21)
(1.19286 0.045496 2.94474e-21)
(0.645764 0.416249 6.42938e-22)
(0.685121 0.467568 0)
(0.731652 0.510839 0)
(0.785438 0.545961 1.3242e-21)
(0.842727 0.569898 -6.65866e-22)
(0.90189 0.583804 2.32059e-21)
(0.959712 0.588536 -4.91174e-21)
(1.01285 0.584307 -8.72917e-21)
(1.06345 0.572617 8.98686e-21)
(1.10868 0.554942 0)
(1.1465 0.532793 0)
(1.17892 0.507037 -6.83501e-21)
(1.20682 0.478472 3.50241e-20)
(1.22835 0.449771 -1.85429e-22)
(1.24441 0.421684 -3.70381e-20)
(1.25682 0.393797 1.03781e-20)
(1.2661 0.366505 4.94047e-20)
(1.2723 0.340947 -9.23203e-21)
(1.27593 0.317654 -3.5253e-20)
(1.27777 0.295881 -3.1052e-20)
(1.27827 0.275225 3.57018e-20)
(1.27764 0.255658 9.77241e-21)
(1.27609 0.237741 0)
(1.27386 0.221467 0)
(1.27109 0.206175 -4.83873e-21)
(1.26786 0.191629 -4.48921e-20)
(1.26424 0.177784 3.99663e-20)
(1.26032 0.164738 -4.77346e-21)
(1.25624 0.15275 -2.49454e-21)
(1.25201 0.141548 -2.47207e-21)
(1.24757 0.130784 0)
(1.24295 0.120419 0)
(1.23816 0.110392 -1.65119e-20)
(1.23326 0.100773 1.90357e-20)
(1.22834 0.0917098 2.28208e-21)
(1.22338 0.0832156 4.94539e-23)
(1.2184 0.0752931 -1.17013e-21)
(1.2136 0.0679651 0)
(1.2091 0.0610546 2.25885e-21)
(1.20487 0.0543302 -2.38136e-21)
(0.715738 0.354273 1.54239e-21)
(0.74216 0.390596 -1.51663e-21)
(0.771673 0.423958 0)
(0.805304 0.454646 -2.59886e-21)
(0.843012 0.479255 9.47712e-22)
(0.883968 0.497756 8.24397e-22)
(0.926954 0.509322 9.99588e-22)
(0.968972 0.51383 -3.39518e-21)
(1.011 0.512288 6.49306e-23)
(1.05089 0.505061 0)
(1.08644 0.493178 -3.19313e-21)
(1.11865 0.477413 2.7777e-20)
(1.14797 0.458203 -1.9021e-20)
(1.17238 0.437333 -6.32107e-21)
(1.19214 0.415693 0)
(1.20873 0.393159 2.01373e-20)
(1.22241 0.370083 -3.36225e-20)
(1.23294 0.347571 -2.05374e-20)
(1.2406 0.326341 3.48392e-20)
(1.24619 0.305982 -7.67786e-21)
(1.25017 0.286253 7.01148e-21)
(1.25273 0.267216 -7.81291e-21)
(1.25399 0.249499 -2.98636e-20)
(1.25422 0.233199 2.99592e-20)
(1.25367 0.217759 -3.32785e-21)
(1.25247 0.202973 3.63714e-21)
(1.2507 0.188812 0)
(1.24846 0.175399 3.88428e-21)
(1.24587 0.163009 0)
(1.24301 0.151404 3.62371e-21)
(1.23986 0.140254 -1.48266e-20)
(1.23645 0.129537 1.49896e-20)
(1.2328 0.119228 1.47905e-20)
(1.22896 0.109423 -1.98676e-21)
(1.22502 0.100238 -1.66794e-20)
(1.22094 0.0915396 8.19125e-21)
(1.21671 0.0832118 -7.32418e-21)
(1.21241 0.0752787 0)
(1.20815 0.0676992 8.84496e-22)
(1.204 0.0604174 0)
(0.756055 0.319756 3.21041e-21)
(0.774266 0.347763 -1.04281e-21)
(0.794703 0.374386 -1.7081e-21)
(0.818119 0.400072 1.11076e-21)
(0.8449 0.42242 0)
(0.87486 0.441285 1.21842e-21)
(0.907533 0.455593 0)
(0.940885 0.464425 -5.19846e-22)
(0.975595 0.468603 2.71395e-21)
(1.00995 0.467878 2.53226e-21)
(1.04196 0.462492 2.5301e-21)
(1.0722 0.453192 -3.07204e-21)
(1.10092 0.440434 1.32726e-20)
(1.12599 0.425255 -1.67699e-20)
(1.14731 0.408404 0)
(1.16609 0.390078 4.74294e-21)
(1.18244 0.370647 0)
(1.19585 0.351041 -4.54043e-21)
(1.20636 0.331955 -6.83412e-22)
(1.21474 0.313206 -2.1187e-20)
(1.22142 0.294704 -1.11689e-20)
(1.22657 0.276578 -2.2152e-22)
(1.23016 0.25945 1.70302e-20)
(1.23245 0.243465 -2.26838e-20)
(1.23377 0.228181 2.88699e-20)
(1.23431 0.21345 2.56888e-20)
(1.23413 0.199268 -2.33655e-20)
(1.23333 0.185771 -1.76668e-20)
(1.23201 0.173229 2.34923e-20)
(1.23027 0.161423 -2.63662e-20)
(1.22816 0.150049 2.36399e-20)
(1.22571 0.139092 2.86956e-21)
(1.22296 0.128533 0)
(1.21996 0.118465 -1.02491e-20)
(1.21678 0.108994 1.29446e-22)
(1.21344 0.0999764 1.17961e-20)
(1.20992 0.091284 -5.82247e-21)
(1.20625 0.0829438 5.88731e-21)
(1.20248 0.074951 -3.65068e-21)
(1.19865 0.067296 3.11168e-21)
(0.79037 0.292295 -2.97171e-21)
(0.804283 0.314279 2.78852e-21)
(0.819414 0.33553 2.27026e-22)
(0.836436 0.356607 -2.17134e-21)
(0.856025 0.375787 1.43558e-21)
(0.878233 0.393072 -2.46184e-21)
(0.903122 0.407495 4.36748e-22)
(0.929319 0.418027 -1.45469e-22)
(0.957371 0.42527 8.5537e-22)
(0.986104 0.42862 -5.92999e-21)
(1.01384 0.427877 3.9493e-21)
(1.0409 0.423626 6.89663e-21)
(1.06742 0.416184 -1.04624e-20)
(1.09146 0.405994 2.64522e-21)
(1.11267 0.393675 4.74878e-21)
(1.13201 0.379544 1.22221e-20)
(1.14944 0.36391 -1.24217e-20)
(1.16435 0.347507 3.77513e-21)
(1.17659 0.330985 1.43925e-20)
(1.18682 0.314333 -1.51174e-20)
(1.1954 0.29755 4.28396e-21)
(1.20244 0.280802 1.67398e-20)
(1.20785 0.264686 -1.24132e-20)
(1.2118 0.249406 -4.138e-21)
(1.21469 0.234633 -1.77119e-20)
(1.21668 0.220264 3.12655e-20)
(1.21785 0.206324 -1.8222e-20)
(1.21828 0.192963 -3.46705e-22)
(1.21806 0.180454 1.84802e-20)
(1.21731 0.168616 -3.72138e-20)
(1.21612 0.157176 2.10986e-20)
(1.21452 0.146128 -2.1299e-20)
(1.21254 0.135461 7.31688e-21)
(1.21026 0.125269 1.9088e-20)
(1.20773 0.11566 -9.57632e-21)
(1.205 0.106491 -9.46806e-21)
(1.20204 0.0976238 9.57894e-21)
(1.19889 0.0890822 4.7422e-21)
(1.19556 0.0808765 -4.21705e-21)
(1.1921 0.0730233 0)
(0.816495 0.271526 7.76181e-22)
(0.827698 0.289319 -1.82394e-21)
(0.839663 0.306641 2.13048e-21)
(0.852878 0.324026 0)
(0.867962 0.340244 0)
(0.885065 0.355398 0)
(0.904442 0.368757 -7.88754e-22)
(0.92522 0.379374 1.25792e-21)
(0.947885 0.387762 1.31074e-22)
(0.971682 0.393219 5.9903e-22)
(0.99531 0.395294 0)
(1.01895 0.394426 1.63646e-21)
(1.04272 0.390836 2.88995e-21)
(1.06494 0.384527 0)
(1.08515 0.375945 -7.25318e-21)
(1.10409 0.36545 -8.58279e-21)
(1.12165 0.353277 8.72943e-21)
(1.13715 0.339957 -1.03298e-20)
(1.15032 0.326043 7.54298e-21)
(1.1617 0.311632 5.35498e-21)
(1.17159 0.296788 -6.604e-21)
(1.18002 0.281687 -3.60429e-22)
(1.18682 0.266876 9.83632e-21)
(1.19213 0.252591 3.4378e-22)
(1.19632 0.238604 0)
(1.19956 0.224861 0)
(1.20192 0.21141 -1.44727e-20)
(1.20346 0.198409 2.89767e-20)
(1.20424 0.186133 -1.12425e-20)
(1.2044 0.174438 0)
(1.20405 0.163088 -1.71011e-20)
(1.20323 0.152083 6.53707e-23)
(1.20198 0.141424 1.75208e-20)
(1.20036 0.131204 -7.7665e-21)
(1.19844 0.12153 9.73663e-21)
(1.19625 0.112269 7.78254e-21)
(1.1938 0.103291 -7.87848e-21)
(1.19111 0.0946187 0)
(1.1882 0.086272 -2.46646e-21)
(1.18511 0.0782763 1.85078e-21)
(0.837858 0.254734 -1.22507e-21)
(0.847236 0.269446 1.70504e-21)
(0.857096 0.283806 0)
(0.867808 0.298295 0)
(0.879905 0.312 1.06799e-21)
(0.893543 0.325075 -1.07016e-21)
(0.909023 0.336985 1.07474e-21)
(0.925779 0.346942 -5.44604e-22)
(0.94424 0.3554 -5.90299e-22)
(0.963945 0.361697 -2.60292e-22)
(0.983918 0.3653 0)
(1.00429 0.366534 -1.41728e-21)
(1.02518 0.365551 5.06924e-21)
(1.04522 0.362084 -5.59401e-21)
(1.0639 0.356424 5.48127e-22)
(1.0818 0.348918 0)
(1.09878 0.339722 0)
(1.11417 0.329182 3.40368e-21)
(1.12762 0.317739 1.27705e-20)
(1.13955 0.30555 -3.50184e-20)
(1.15019 0.292706 1.30434e-20)
(1.15953 0.279378 4.58866e-21)
(1.16732 0.266041 2.70108e-21)
(1.17366 0.252945 8.42647e-21)
(1.17888 0.239951 -1.07923e-20)
(1.18315 0.22704 5.9442e-21)
(1.18652 0.214276 -2.64199e-21)
(1.18902 0.201825 -1.7628e-20)
(1.19069 0.189955 -6.00754e-21)
(1.19167 0.178562 0)
(1.1921 0.167446 0)
(1.19201 0.156619 -1.25485e-20)
(1.19144 0.146087 9.65385e-21)
(1.19045 0.135949 1.5572e-21)
(1.1891 0.126312 4.77549e-21)
(1.18743 0.117055 -6.50069e-21)
(1.18547 0.108059 7.92275e-22)
(1.18322 0.099349 0)
(1.18071 0.0909476 4.0025e-22)
(1.17798 0.0828847 2.24268e-22)
(0.855431 0.240883 -1.20241e-22)
(0.8635 0.253267 -8.71137e-23)
(0.871894 0.265364 1.9267e-21)
(0.880894 0.27759 1.09173e-21)
(0.890938 0.289244 9.51554e-22)
(0.90217 0.300495 1.39823e-21)
(0.914874 0.310951 -2.64655e-21)
(0.928672 0.319974 -3.57296e-22)
(0.943932 0.327976 8.18724e-23)
(0.96038 0.334382 -2.3015e-22)
(0.977295 0.338664 1.52953e-21)
(0.994786 0.341078 -3.73368e-23)
(1.01298 0.341733 -3.10041e-21)
(1.03079 0.340222 6.67375e-21)
(1.04773 0.336716 -4.4501e-21)
(1.06427 0.331524 7.02861e-21)
(1.08025 0.324739 -1.09761e-21)
(1.09505 0.316557 -2.48578e-20)
(1.1083 0.307307 1.77096e-20)
(1.1203 0.297167 -3.54885e-21)
(1.13123 0.286234 0)
(1.14105 0.274662 7.85547e-21)
(1.14947 0.262844 -1.18941e-20)
(1.15651 0.251031 -1.25133e-20)
(1.1625 0.239146 1.71639e-20)
(1.16757 0.227198 -1.34821e-20)
(1.17175 0.215262 2.09301e-20)
(1.17505 0.203502 2.4999e-21)
(1.17749 0.192178 2.5522e-21)
(1.17921 0.18122 -2.40092e-21)
(1.18033 0.170465 0)
(1.18091 0.159933 -2.50663e-21)
(1.18097 0.149639 2.72957e-21)
(1.18056 0.139683 6.69944e-21)
(1.17975 0.130172 -9.49221e-21)
(1.17858 0.121002 6.72327e-21)
(1.17708 0.112066 -6.18217e-21)
(1.17526 0.10339 0)
(1.17314 0.0950005 -1.39679e-21)
(1.17077 0.0869281 1.47203e-21)
(0.870183 0.229181 0)
(0.877266 0.239758 -2.37674e-21)
(0.884578 0.250085 -2.14882e-21)
(0.892339 0.260522 -1.01914e-21)
(0.90091 0.270512 -9.63266e-22)
(0.910411 0.280222 0)
(0.921094 0.289359 5.4618e-22)
(0.932693 0.29741 -1.85236e-22)
(0.945521 0.304745 -1.65977e-22)
(0.959413 0.310882 -2.80478e-22)
(0.973835 0.315344 -5.6764e-22)
(0.988888 0.318334 2.18631e-21)
(1.0047 0.319943 1.33333e-21)
(1.02043 0.31971 1.15435e-21)
(1.03563 0.317725 -1.16866e-21)
(1.05068 0.314253 2.86715e-22)
(1.06545 0.309339 3.67118e-21)
(1.07939 0.303068 0)
(1.0921 0.295673 -1.00076e-20)
(1.10383 0.287329 7.41051e-21)
(1.11471 0.278125 0)
(1.12465 0.26819 1.82435e-20)
(1.13338 0.257842 -1.57961e-20)
(1.14085 0.247311 3.17721e-21)
(1.14735 0.236571 1.42098e-20)
(1.15299 0.225647 -1.09412e-20)
(1.15778 0.214617 0)
(1.16172 0.203639 0)
(1.16479 0.192958 -3.87104e-21)
(1.16712 0.182534 2.14688e-21)
(1.16885 0.172237 8.47012e-21)
(1.17001 0.162095 -6.37155e-21)
(1.17064 0.152131 0)
(1.17077 0.142443 1.50743e-22)
(1.17045 0.13314 -7.90003e-21)
(1.16975 0.124134 4.50206e-21)
(1.16868 0.11533 0)
(1.16727 0.106757 -2.32051e-21)
(1.16554 0.0984424 1.47986e-21)
(1.16352 0.0904179 -1.50672e-22)
(0.882722 0.219129 6.60253e-22)
(0.889033 0.22827 6.13745e-22)
(0.895516 0.237187 9.36388e-22)
(0.902344 0.24619 9.5382e-23)
(0.909814 0.254826 1.84085e-23)
(0.918028 0.26325 0)
(0.927201 0.271239 -1.06539e-22)
(0.937137 0.278377 3.94148e-22)
(0.948099 0.284994 -6.76059e-22)
(0.959988 0.290694 -2.20528e-22)
(0.972403 0.295056 -1.8714e-22)
(0.985437 0.298253 -1.89006e-21)
(0.99922 0.300363 -2.0018e-21)
(1.01308 0.300925 1.21769e-21)
(1.02666 0.299976 1.05428e-21)
(1.04025 0.297741 -3.77457e-21)
(1.05375 0.294233 1.04963e-21)
(1.06668 0.289462 -2.99497e-21)
(1.07868 0.283582 1.43562e-21)
(1.08991 0.276753 -9.94208e-21)
(1.10048 0.269053 8.4732e-21)
(1.11029 0.260583 -1.0082e-20)
(1.11906 0.251589 9.94123e-21)
(1.12672 0.24228 -1.38861e-20)
(1.13351 0.232659 1.38934e-20)
(1.13951 0.222759 -1.52864e-20)
(1.14473 0.212658 -3.1991e-22)
(1.14914 0.202503 1.58908e-20)
(1.1527 0.192521 -3.23946e-21)
(1.15553 0.182696 6.81358e-21)
(1.15776 0.172925 -3.4018e-21)
(1.15943 0.163243 0)
(1.16055 0.153678 0)
(1.16115 0.144327 1.95634e-21)
(1.16128 0.135299 -3.71216e-21)
(1.161 0.126521 -9.99716e-22)
(1.16034 0.117911 8.53581e-24)
(1.15932 0.109498 3.97064e-21)
(1.15794 0.101314 5.15658e-22)
(1.15626 0.0933878 1.35642e-22)
(0.893503 0.210371 -2.10197e-22)
(0.899193 0.21835 8.63085e-22)
(0.905018 0.226124 -7.10112e-22)
(0.911116 0.23396 -6.46455e-22)
(0.917735 0.241485 -6.63539e-22)
(0.924961 0.248838 7.60471e-22)
(0.932974 0.255843 -7.17084e-23)
(0.941625 0.262162 4.82724e-22)
(0.951135 0.268087 -1.19341e-22)
(0.961443 0.27329 4.76448e-23)
(0.972241 0.277411 -4.84813e-23)
(0.983616 0.280599 -9.35978e-22)
(0.99569 0.282923 -7.00881e-22)
(1.00794 0.28395 2.12903e-22)
(1.02005 0.283683 0)
(1.03229 0.282316 0)
(1.04455 0.279842 8.98773e-21)
(1.05644 0.276221 3.70315e-22)
(1.06762 0.27155 -3.8941e-22)
(1.07823 0.265967 3.42076e-21)
(1.08833 0.259538 7.31897e-21)
(1.09783 0.252337 -9.45313e-21)
(1.10645 0.244552 -4.57267e-21)
(1.11411 0.236364 -4.16554e-22)
(1.121 0.227792 -2.84788e-21)
(1.12719 0.218876 9.68446e-21)
(1.13267 0.209686 0)
(1.13739 0.200356 -2.36879e-22)
(1.14131 0.191093 0)
(1.14453 0.181898 -2.76969e-21)
(1.14716 0.172694 3.093e-21)
(1.14924 0.163516 -6.1423e-21)
(1.15077 0.1544 9.2702e-21)
(1.15178 0.145436 -7.97441e-21)
(1.1523 0.136735 9.80479e-21)
(1.1524 0.128236 -3.31091e-21)
(1.15211 0.119869 8.14979e-22)
(1.15144 0.111666 3.39893e-21)
(1.1504 0.103657 -8.56423e-22)
(1.14904 0.0958745 7.92851e-22)
(0.902861 0.202655 -3.42804e-22)
(0.908038 0.209676 -3.61445e-22)
(0.913325 0.216509 -5.39846e-22)
(0.918837 0.223384 1.20056e-21)
(0.924779 0.229987 3.05274e-21)
(0.931224 0.236442 -1.6937e-21)
(0.938322 0.24261 0)
(0.94596 0.248208 5.06258e-22)
(0.954319 0.253498 -6.74035e-22)
(0.963363 0.258205 0)
(0.972852 0.262023 7.07429e-23)
(0.982862 0.26508 6.66214e-22)
(0.993508 0.267444 1.53508e-21)
(1.00437 0.268717 -5.08933e-22)
(1.0152 0.268886 -1.46477e-21)
(1.0262 0.268115 3.88315e-21)
(1.03732 0.266387 1.84031e-21)
(1.0482 0.263634 -7.79408e-21)
(1.05854 0.259911 -2.95764e-22)
(1.06846 0.255335 -2.43566e-21)
(1.078 0.249958 5.95644e-21)
(1.08708 0.243835 -3.05519e-21)
(1.09542 0.237103 -3.60231e-21)
(1.10293 0.229914 7.4556e-21)
(1.10979 0.222301 -1.12563e-20)
(1.11602 0.214299 0)
(1.12162 0.205972 8.77159e-21)
(1.12653 0.197441 -1.12459e-20)
(1.13069 0.18889 0)
(1.13418 0.180333 2.53493e-21)
(1.13712 0.17171 -5.06677e-21)
(1.13951 0.163061 5.15431e-21)
(1.14138 0.154421 -2.77232e-21)
(1.14273 0.145879 1.41934e-21)
(1.14359 0.13754 -9.5429e-23)
(1.14402 0.129357 -4.2207e-21)
(1.14405 0.121272 2.13612e-21)
(1.14369 0.113317 1.46167e-21)
(1.14297 0.105523 -2.22086e-21)
(1.1419 0.0979206 9.67886e-22)
(0.911051 0.19579 -3.12467e-22)
(0.915796 0.202012 -8.68218e-22)
(0.920633 0.208059 1.68436e-21)
(0.925661 0.214132 -1.00215e-21)
(0.931049 0.219963 -8.88173e-22)
(0.936862 0.225661 1.40953e-21)
(0.943224 0.231114 -1.18655e-21)
(0.950044 0.236086 -3.8258e-22)
(0.957476 0.240805 3.09935e-22)
(0.965496 0.245043 8.63603e-23)
(0.973913 0.248539 -1.53302e-22)
(0.982795 0.251407 -2.714e-22)
(0.992247 0.253706 1.18868e-21)
(1.00193 0.255085 4.27485e-22)
(1.01164 0.255518 -1.70852e-21)
(1.02155 0.255148 1.26693e-21)
(1.03162 0.253952 1.75238e-21)
(1.04155 0.251847 -1.28302e-21)
(1.05108 0.248859 -1.99556e-21)
(1.0603 0.245088 2.24355e-21)
(1.06924 0.240572 -2.23326e-21)
(1.07782 0.23535 -2.73763e-21)
(1.0858 0.229519 -5.80849e-21)
(1.09307 0.223207 8.76476e-21)
(1.09978 0.21645 3.40274e-21)
(1.10595 0.20928 -3.29164e-21)
(1.11156 0.201754 7.38862e-21)
(1.11655 0.193976 -7.48451e-21)
(1.12084 0.186108 0)
(1.12452 0.178176 -8.34053e-21)
(1.12767 0.170132 8.48031e-21)
(1.1303 0.162016 -4.46522e-21)
(1.13243 0.153865 6.74537e-21)
(1.13405 0.145762 6.98795e-21)
(1.13519 0.137808 -6.05009e-21)
(1.1359 0.129968 1.26861e-21)
(1.13621 0.122192 0)
(1.13613 0.114513 -2.53123e-21)
(1.13568 0.106963 2.25446e-21)
(1.13487 0.0995712 -4.55407e-23)
(0.918268 0.189634 5.86532e-22)
(0.922642 0.195181 4.80315e-22)
(0.927098 0.200565 3.97525e-22)
(0.931717 0.20596 0)
(0.936645 0.211138 0)
(0.941933 0.216194 0)
(0.94769 0.221035 -4.51568e-22)
(0.953838 0.225461 8.66406e-22)
(0.96051 0.229674 0)
(0.967687 0.233482 -1.24784e-22)
(0.975217 0.236662 0)
(0.98316 0.239314 -5.32627e-22)
(0.991607 0.241493 9.23655e-22)
(1.00029 0.242888 -5.11013e-22)
(1.00903 0.24347 -7.81964e-22)
(1.01798 0.243362 0)
(1.0271 0.24254 -2.58014e-21)
(1.03616 0.240916 2.47996e-21)
(1.04492 0.238494 3.26176e-21)
(1.05346 0.235361 -3.30297e-21)
(1.06179 0.231543 3.92661e-21)
(1.06986 0.227067 2.05187e-21)
(1.07743 0.222 -4.86479e-21)
(1.08439 0.216448 4.67479e-21)
(1.09088 0.210444 -8.1823e-21)
(1.09691 0.204019 -4.26199e-24)
(1.10244 0.197221 8.96697e-21)
(1.10742 0.19014 6.57213e-21)
(1.11177 0.182917 -1.68004e-20)
(1.11554 0.175583 1.40917e-20)
(1.11883 0.168101 1.92543e-21)
(1.12163 0.16051 -5.70088e-21)
(1.12395 0.152845 -2.04219e-21)
(1.12578 0.145187 -2.10132e-21)
(1.12714 0.13763 0)
(1.12808 0.130148 1.02812e-21)
(1.12863 0.122699 1.04806e-21)
(1.12879 0.115316 0)
(1.12857 0.108031 5.59061e-22)
(1.12801 0.100873 -3.72567e-23)
(0.924666 0.184076 3.55715e-22)
(0.928719 0.189046 1.05832e-21)
(0.932845 0.193864 -8.27808e-22)
(0.937114 0.198682 -6.74559e-22)
(0.941649 0.203302 0)
(0.946496 0.207808 0)
(0.951745 0.212122 0)
(0.957332 0.216074 0)
(0.963369 0.219841 3.45987e-22)
(0.969845 0.22326 -1.22224e-22)
(0.976632 0.22614 0)
(0.983784 0.22857 -4.29563e-22)
(0.991382 0.230601 4.33606e-22)
(0.999203 0.231958 1.518e-21)
(1.0071 0.232612 -2.40431e-21)
(1.01521 0.23267 1.37318e-21)
(1.0235 0.232108 -9.93674e-22)
(1.03177 0.230838 1.05823e-21)
(1.03982 0.228852 -2.72682e-21)
(1.0477 0.226222 1.36909e-21)
(1.05545 0.222968 -1.72949e-21)
(1.06299 0.219107 -1.90866e-21)
(1.07013 0.214683 0)
(1.07675 0.209781 -4.31311e-21)
(1.08298 0.204436 2.42145e-21)
(1.0888 0.198671 2.58563e-21)
(1.0942 0.192527 -2.25233e-22)
(1.0991 0.186081 2.65661e-21)
(1.10343 0.179456 5.82441e-21)
(1.10724 0.172685 -2.91762e-21)
(1.1106 0.165738 -1.64364e-21)
(1.1135 0.158654 -1.22271e-22)
(1.11595 0.151466 6.84916e-21)
(1.11794 0.144248 -6.96302e-21)
(1.11947 0.137089 0)
(1.1206 0.129971 -1.8508e-21)
(1.12134 0.122858 -9.7485e-22)
(1.1217 0.115783 0)
(1.12169 0.108778 -2.5181e-22)
(1.12133 0.101871 0)
(0.930369 0.179026 -1.44114e-22)
(0.93414 0.183501 -1.14525e-21)
(0.937977 0.187831 -2.90484e-22)
(0.941941 0.192153 1.28196e-21)
(0.946138 0.196293 0)
(0.950606 0.200325 -1.2788e-21)
(0.955422 0.204183 8.47983e-22)
(0.960533 0.207721 -4.97675e-22)
(0.966034 0.211094 5.00118e-22)
(0.971917 0.214165 -1.05308e-22)
(0.978074 0.216768 0)
(0.984554 0.218981 0)
(0.991429 0.220852 0)
(0.998511 0.22214 -7.10166e-22)
(1.00568 0.222815 1.13733e-21)
(1.01305 0.222972 -1.15229e-21)
(1.0206 0.222588 0)
(1.02816 0.221578 -2.77895e-21)
(1.03556 0.219926 -4.60777e-21)
(1.04284 0.217694 1.11611e-20)
(1.05002 0.214896 -5.27397e-21)
(1.05705 0.211539 0)
(1.06375 0.207654 0)
(1.07002 0.203308 1.92004e-21)
(1.07595 0.198532 5.9407e-21)
(1.08153 0.193347 -4.11006e-21)
(1.08675 0.187787 8.20409e-23)
(1.09153 0.181915 -9.68337e-21)
(1.09579 0.175839 7.38501e-21)
(1.09958 0.16959 9.60209e-23)
(1.10296 0.163148 0)
(1.10591 0.156545 -1.47847e-21)
(1.10844 0.149815 1.42546e-21)
(1.11054 0.143026 1.59683e-21)
(1.1122 0.136261 3.88143e-23)
(1.11347 0.129505 -2.37268e-21)
(1.11436 0.122732 1.65239e-21)
(1.11489 0.115971 -3.35623e-21)
(1.11505 0.109254 2.11911e-21)
(1.11487 0.102609 0)
(0.935477 0.174415 -3.27413e-23)
(0.938996 0.178459 -3.42458e-22)
(0.942577 0.182367 0)
(0.946273 0.186259 5.08108e-22)
(0.950174 0.189983 0)
(0.954313 0.193603 1.91135e-21)
(0.958756 0.197064 -1.50339e-22)
(0.963457 0.20024 -5.29597e-22)
(0.968499 0.203266 7.6827e-22)
(0.973874 0.206026 0)
(0.979492 0.208375 -7.54649e-24)
(0.985396 0.210383 -3.01698e-22)
(0.991648 0.212093 4.31072e-22)
(0.998092 0.213294 1.02059e-21)
(1.00463 0.213958 -1.49496e-21)
(1.01135 0.214168 0)
(1.01824 0.213903 0)
(1.02517 0.213083 1.52954e-22)
(1.03197 0.211689 3.9307e-21)
(1.03869 0.209771 -3.97477e-21)
(1.04535 0.20734 -2.69565e-21)
(1.05189 0.204399 -2.97873e-21)
(1.05816 0.200965 2.78344e-21)
(1.06407 0.197092 0)
(1.06969 0.192809 5.19752e-21)
(1.07502 0.188131 -1.45289e-20)
(1.08002 0.183087 9.58378e-21)
(1.08464 0.17773 -8.30217e-21)
(1.0888 0.172153 4.24901e-21)
(1.09252 0.166386 -1.73587e-22)
(1.09588 0.160413 4.80697e-21)
(1.09884 0.154264 -9.89369e-21)
(1.10141 0.147971 3.75191e-21)
(1.10357 0.141594 -5.27464e-21)
(1.10532 0.135211 4.13299e-21)
(1.10669 0.128812 -2.8407e-21)
(1.10771 0.122375 2.87565e-21)
(1.10837 0.115929 2.19296e-21)
(1.10867 0.109504 -2.24985e-21)
(1.10863 0.103127 0)
(0.940069 0.170186 0)
(0.943363 0.173853 0)
(0.946716 0.177392 -6.47171e-24)
(0.950173 0.180908 -5.39587e-22)
(0.953812 0.184269 7.12646e-22)
(0.957661 0.18753 -2.77974e-21)
(0.961778 0.190644 8.84977e-23)
(0.966123 0.193501 -4.64064e-22)
(0.970766 0.196222 -8.34233e-22)
(0.975702 0.198703 3.73216e-22)
(0.980854 0.200821 8.81866e-23)
(0.986259 0.202639 7.83359e-23)
(0.991972 0.204193 -5.22855e-22)
(0.99786 0.205299 2.00487e-22)
(1.00384 0.205932 2.24586e-21)
(1.00999 0.206164 -1.68602e-21)
(1.0163 0.205976 -1.40222e-21)
(1.02266 0.205295 5.29484e-21)
(1.02892 0.204098 4.90975e-21)
(1.03513 0.202429 -7.24124e-21)
(1.0413 0.200296 6.01431e-21)
(1.04738 0.197698 -4.12735e-21)
(1.05324 0.194641 2.61167e-21)
(1.05879 0.191171 -2.60827e-21)
(1.0641 0.187312 2.81836e-21)
(1.06916 0.183078 0)
(1.07393 0.17849 0)
(1.07837 0.173594 1.8575e-21)
(1.0824 0.168468 0)
(1.08603 0.163142 -2.05539e-21)
(1.08932 0.157603 0)
(1.09226 0.151878 6.46654e-21)
(1.09483 0.145995 -2.27203e-21)
(1.09703 0.140011 1.21014e-21)
(1.09883 0.133996 1.25189e-21)
(1.10027 0.127944 0)
(1.10138 0.121837 0)
(1.10214 0.115702 -6.71695e-22)
(1.10255 0.109569 1.00511e-21)
(1.10264 0.103462 -6.70066e-22)
(0.944214 0.166292 2.67963e-22)
(0.947305 0.169626 0)
(0.950452 0.17284 4.4401e-23)
(0.953694 0.176028 4.28065e-22)
(0.957099 0.179069 -1.71871e-21)
(0.960691 0.182016 2.42426e-21)
(0.964521 0.184825 -5.09296e-22)
(0.968551 0.1874 0)
(0.972845 0.18985 2.75227e-22)
(0.977398 0.192083 -1.37274e-22)
(0.982142 0.193993 8.33053e-24)
(0.987111 0.195634 -9.34918e-24)
(0.992354 0.19704 -4.81257e-22)
(0.997755 0.19805 7.90543e-22)
(1.00324 0.198639 6.71115e-22)
(1.00889 0.198872 0)
(1.01469 0.198732 -1.04497e-21)
(1.02053 0.198151 -2.65592e-21)
(1.02631 0.197108 -1.79421e-21)
(1.03205 0.195637 4.76861e-21)
(1.03776 0.193746 -3.35778e-21)
(1.04342 0.19143 2.05257e-21)
(1.04889 0.188691 0)
(1.0541 0.185564 2.46111e-21)
(1.05909 0.182073 -2.65868e-21)
(1.06388 0.178225 0)
(1.06842 0.174039 2.82373e-21)
(1.07266 0.169553 6.35399e-21)
(1.07653 0.164834 -9.97734e-21)
(1.08005 0.15991 6.7904e-21)
(1.08326 0.15477 3.6792e-21)
(1.08615 0.149438 -5.70947e-21)
(1.08869 0.14394 -2.04966e-21)
(1.09089 0.138327 -1.9852e-21)
(1.09271 0.132663 0)
(1.0942 0.126946 0)
(1.09537 0.121159 0)
(1.0962 0.11533 5.55962e-22)
(1.09671 0.109484 -5.86236e-22)
(1.0969 0.103648 5.71118e-22)
(0.947966 0.162692 -4.28688e-22)
(0.950873 0.165733 4.25585e-22)
(0.953833 0.16866 -3.85228e-22)
(0.956881 0.171557 -3.32315e-22)
(0.960075 0.174317 9.88521e-22)
(0.963437 0.176985 -1.06451e-21)
(0.96701 0.179525 3.98055e-23)
(0.970762 0.181852 -3.17109e-22)
(0.974747 0.18406 -3.79367e-22)
(0.978962 0.186073 2.62689e-22)
(0.983347 0.187794 -2.47508e-22)
(0.987932 0.189274 -2.65102e-22)
(0.99276 0.190542 3.9551e-22)
(0.997732 0.191456 -9.79475e-22)
(1.00278 0.191995 4.41356e-22)
(1.00798 0.192216 1.58155e-21)
(1.01332 0.192102 -1.59526e-21)
(1.01871 0.191594 1.14728e-21)
(1.02404 0.190669 3.06058e-22)
(1.02936 0.189358 -1.15594e-21)
(1.03466 0.187664 0)
(1.03991 0.185583 0)
(1.04502 0.183111 0)
(1.04989 0.180279 4.2597e-21)
(1.05459 0.177104 -4.31146e-21)
(1.05911 0.173594 0)
(1.06341 0.169762 -2.66983e-21)
(1.06745 0.165642 5.57238e-21)
(1.07115 0.16129 -8.65874e-21)
(1.07454 0.15673 0)
(1.07765 0.151956 3.23668e-21)
(1.08046 0.146987 -1.67557e-21)
(1.08296 0.141848 -3.51996e-21)
(1.08513 0.136584 5.45426e-21)
(1.08696 0.131254 -1.96657e-21)
(1.08847 0.125857 4.78362e-21)
(1.08968 0.120379 0)
(1.09056 0.114845 -3.3056e-23)
(1.09113 0.109282 2.513e-22)
(1.0914 0.103713 -1.47399e-23)
(0.951374 0.159356 2.26161e-22)
(0.954112 0.162135 -3.10034e-23)
(0.956902 0.164807 3.68845e-22)
(0.959773 0.167446 6.02768e-22)
(0.962776 0.169956 0)
(0.96593 0.172378 9.06956e-22)
(0.969272 0.174679 -3.58897e-22)
(0.972774 0.176784 6.37504e-22)
(0.976485 0.178779 3.87549e-22)
(0.980399 0.180593 -7.37404e-23)
(0.984465 0.182145 7.42896e-23)
(0.98871 0.183477 -3.76149e-22)
(0.993171 0.184617 4.963e-22)
(0.997761 0.18544 -1.49147e-21)
(1.00243 0.185926 2.67745e-22)
(1.00723 0.186126 1.13538e-21)
(1.01215 0.186025 -7.43162e-22)
(1.01713 0.185569 -8.82281e-22)
(1.02206 0.184736 2.25038e-21)
(1.02699 0.183552 -1.11058e-21)
(1.03191 0.182021 1.30678e-21)
(1.0368 0.180136 0)
(1.04155 0.177891 0)
(1.04612 0.175311 0)
(1.05053 0.172411 4.03611e-21)
(1.05478 0.169196 -1.7909e-21)
(1.05885 0.165678 -4.38976e-21)
(1.06268 0.161882 -2.31741e-21)
(1.06622 0.15786 -5.18649e-21)
(1.06947 0.153632 7.8399e-21)
(1.07246 0.149192 5.71397e-21)
(1.07518 0.144559 -8.89752e-21)
(1.07762 0.139753 4.52321e-21)
(1.07975 0.134816 0)
(1.08156 0.129801 1.63008e-21)
(1.08307 0.124707 -6.02716e-21)
(1.08429 0.119526 8.95928e-22)
(1.08521 0.114278 -9.03251e-22)
(1.08583 0.10899 -9.2271e-22)
(1.08616 0.103681 5.16057e-22)
(0.954477 0.156254 -3.71427e-22)
(0.957061 0.1588 -2.69931e-23)
(0.959694 0.161244 6.02923e-22)
(0.962403 0.163652 -1.09505e-21)
(0.965231 0.16594 5.20377e-22)
(0.968196 0.168143 0)
(0.97133 0.170231 0)
(0.974607 0.172139 0)
(0.97807 0.173942 -1.75573e-22)
(0.981715 0.17558 -1.49939e-23)
(0.985496 0.176978 8.26066e-23)
(0.989437 0.178177 -3.71921e-23)
(0.99357 0.1792 -6.65001e-22)
(0.997821 0.179936 5.5945e-22)
(1.00214 0.180368 1.00097e-21)
(1.00658 0.180542 -1.00979e-21)
(1.01114 0.180443 7.08272e-22)
(1.01574 0.180024 8.40476e-22)
(1.02032 0.179263 1.80772e-21)
(1.02488 0.178184 1.13878e-21)
(1.02945 0.176787 -3.51322e-21)
(1.034 0.175067 2.77298e-21)
(1.03844 0.173016 -1.39506e-21)
(1.04271 0.170653 -3.30118e-21)
(1.04685 0.167991 8.56904e-21)
(1.05085 0.165036 -1.6753e-21)
(1.05468 0.161794 1.92389e-21)
(1.05831 0.158289 2.20149e-21)
(1.06167 0.154564 4.58613e-21)
(1.06477 0.150636 7.97123e-24)
(1.06765 0.146502 -2.48512e-21)
(1.07027 0.142177 -1.3536e-21)
(1.07262 0.13768 -1.4128e-21)
(1.0747 0.133048 0)
(1.07648 0.128329 -2.97579e-21)
(1.07797 0.123525 -4.9031e-23)
(1.0792 0.118625 2.345e-21)
(1.08014 0.113653 3.62036e-21)
(1.08079 0.10863 -2.04217e-21)
(1.08116 0.103576 7.85383e-22)
(0.957309 0.153363 8.50749e-22)
(0.95975 0.1557 -4.82731e-22)
(0.962239 0.15794 -8.41556e-22)
(0.964798 0.160142 2.6075e-22)
(0.967466 0.162231 0)
(0.970258 0.164237 0)
(0.973202 0.166135 0)
(0.976275 0.167867 2.08233e-22)
(0.979515 0.169499 2.02629e-22)
(0.982918 0.170978 -1.37493e-22)
(0.986443 0.172238 0)
(0.99011 0.173315 4.23094e-22)
(0.993949 0.17423 -2.06795e-22)
(0.997894 0.174886 -5.05912e-22)
(1.0019 0.175266 8.95778e-22)
(1.00602 0.175411 -2.98009e-21)
(1.01024 0.175308 1.1123e-21)
(1.01451 0.174915 -1.3917e-21)
(1.01876 0.174211 -1.72499e-21)
(1.023 0.173217 -1.99069e-21)
(1.02725 0.171932 2.01253e-21)
(1.03149 0.170352 0)
(1.03562 0.168466 -1.3474e-21)
(1.03962 0.166291 -2.92438e-21)
(1.0435 0.163839 1.36923e-21)
(1.04725 0.161111 0)
(1.05086 0.158115 -1.83176e-21)
(1.05429 0.15487 -1.81659e-21)
(1.05748 0.151411 0)
(1.06044 0.147757 -2.1792e-21)
(1.06318 0.143902 -6.78497e-21)
(1.06569 0.139861 7.0233e-21)
(1.06796 0.13565 -4.88453e-21)
(1.06997 0.131302 1.27103e-21)
(1.07171 0.126862 0)
(1.07318 0.12233 -2.73943e-21)
(1.07439 0.117699 2.77084e-21)
(1.07533 0.112989 0)
(1.076 0.108222 -1.88839e-22)
(1.07641 0.103414 0)
(0.959899 0.150663 -6.92907e-22)
(0.962208 0.152811 -2.60937e-22)
(0.964563 0.154867 2.60948e-22)
(0.966984 0.156885 0)
(0.969505 0.158794 0)
(0.972138 0.160625 -2.85632e-22)
(0.974909 0.162353 -1.57437e-22)
(0.977795 0.163926 2.46163e-22)
(0.980832 0.165405 -2.31423e-22)
(0.984015 0.16674 -2.38392e-23)
(0.987308 0.167876 2.39764e-23)
(0.990728 0.168843 0)
(0.994302 0.16966 -7.67298e-23)
(0.997972 0.170241 9.91017e-22)
(1.0017 0.170571 8.0551e-22)
(1.00553 0.170686 1.19202e-22)