/*--------------------------------*- C++ -*----------------------------------*\
| =========                 |                                                 |
| \\      /  F ield         | OpenFOAM: The Open Source CFD Toolbox           |
|  \\    /   O peration     | Version:  3.0.1                                 |
|   \\  /    A nd           | Web:      www.OpenFOAM.org                      |
|    \\/     M anipulation  |                                                 |
\*---------------------------------------------------------------------------*/
FoamFile
{
    version     2.0;
    format      ascii;
    class       volScalarField;
    location    "300";
    object      nuTilda;
}
// * * * * * * * * * * * * * * * * * * * * * * * * * * * * * * * * * * * * * //

dimensions      [0 2 -1 0 0 0 0];

internalField   nonuniform List<scalar> 
58000
(
0.000787306
0.000722521
0.000648609
0.000583783
0.000532782
0.00049277
0.000465309
0.000442847
0.000427532
0.000417977
0.000410932
0.000406678
0.000405367
0.000403888
0.000402473
0.000401866
0.000402154
0.000403007
0.000404196
0.000405769
0.000407769
0.000409984
0.000412407
0.000414818
0.000417425
0.000419897
0.000422387
0.000424854
0.000427148
0.000429404
0.000431368
0.000433137
0.000434652
0.000435847
0.000436791
0.000436956
0.000436104
0.000434818
0.000433453
0.000433733
0.00297542
0.00264953
0.00228857
0.00196029
0.00169691
0.00148882
0.00133014
0.00120361
0.00110636
0.00103391
0.000976649
0.000933176
0.000900824
0.000874444
0.000850178
0.000831067
0.000816793
0.000804396
0.000792761
0.000783289
0.000776498
0.000770706
0.00076539
0.000760256
0.000756927
0.00075394
0.000750983
0.000747994
0.000744789
0.000742323
0.000739932
0.000736213
0.00073125
0.000725305
0.000718808
0.000710907
0.000702333
0.000693897
0.000685925
0.000682561
0.00524192
0.00484927
0.00439081
0.00390998
0.00347166
0.00309214
0.00279007
0.0025417
0.00234165
0.00218633
0.00206069
0.00195755
0.00188004
0.001818
0.00176461
0.00172327
0.00169233
0.00166665
0.00164393
0.00162591
0.00161282
0.00160163
0.00159114
0.00158076
0.00157311
0.00156508
0.00155585
0.00154566
0.00153449
0.00152486
0.0015152
0.00150503
0.00149435
0.00148282
0.00147028
0.0014552
0.00143808
0.00142064
0.00140456
0.0013963
0.00750754
0.00707241
0.00654432
0.00598744
0.00545215
0.00495204
0.00452809
0.00416396
0.00386091
0.00361961
0.00341686
0.00324777
0.00311692
0.00301021
0.00291777
0.0028443
0.00278732
0.00273936
0.00269708
0.00266277
0.00263642
0.00261352
0.00259064
0.00256735
0.00254881
0.00253192
0.00251483
0.00249726
0.00247867
0.00246169
0.00244425
0.00242549
0.00240551
0.00238441
0.00236309
0.00233894
0.00231218
0.00228476
0.00225893
0.00224146
0.00974926
0.00929191
0.00872822
0.00812474
0.00752428
0.00695111
0.0064421
0.0059853
0.00558945
0.00526378
0.00498323
0.00474404
0.00455444
0.0043971
0.00425928
0.0041477
0.00405933
0.0039839
0.00391638
0.00385992
0.0038139
0.00377292
0.00373439
0.00369705
0.00366727
0.00363923
0.0036105
0.00358098
0.00355047
0.00352395
0.00349688
0.00346795
0.00343721
0.00340483
0.00337264
0.00333742
0.0032991
0.0032598
0.00322229
0.00319325
0.0119608
0.0114904
0.010908
0.0102751
0.0096385
0.00901479
0.00844643
0.00792407
0.00745528
0.00705745
0.00670648
0.00640021
0.00615147
0.00594156
0.00575548
0.0056016
0.005477
0.00536958
0.00527163
0.00518776
0.00511924
0.00505843
0.00500219
0.00494695
0.0049001
0.00485738
0.00481517
0.00477304
0.00472936
0.00468928
0.00465
0.00460976
0.0045671
0.00452216
0.00447743
0.00442951
0.00437808
0.00432538
0.00427455
0.00423197
0.0141436
0.0136656
0.0130742
0.0124259
0.0117681
0.0111116
0.0105028
0.00992902
0.00940536
0.00895065
0.00854086
0.0081739
0.0078693
0.00760804
0.00737452
0.00717691
0.00701334
0.00686953
0.00673889
0.00662653
0.00653418
0.00645049
0.00637132
0.00629576
0.00623203
0.00617311
0.00611485
0.00605651
0.00599813
0.00594396
0.00589087
0.00583707
0.00578045
0.00572122
0.00566228
0.00560015
0.00553423
0.00546681
0.00540126
0.00534355
0.0163001
0.0158175
0.0152223
0.0145669
0.0138976
0.0132214
0.012584
0.0119758
0.0114104
0.0109072
0.0104468
0.01003
0.00967657
0.00936764
0.00908622
0.0088456
0.00864416
0.00846529
0.00830165
0.0081596
0.00803911
0.00793065
0.00782846
0.00773156
0.00764704
0.00756971
0.00749469
0.00741938
0.0073435
0.00727401
0.00720583
0.00713667
0.00706456
0.00698972
0.00691528
0.00683773
0.00675619
0.00667295
0.00659149
0.00651736
0.0184329
0.0179475
0.0173515
0.0166935
0.0160185
0.0153318
0.0146762
0.0140443
0.013446
0.012908
0.0124079
0.0119468
0.0115497
0.0111978
0.0108736
0.0105927
0.0103554
0.0101419
0.00994454
0.00977058
0.00962195
0.00948858
0.00936207
0.00924105
0.00913565
0.00903848
0.00894348
0.0088502
0.00875626
0.00866964
0.00858458
0.00849767
0.00840927
0.00831804
0.00822715
0.00813321
0.00803509
0.00793505
0.00783667
0.00774506
0.0205446
0.0200577
0.0194626
0.0188046
0.0181258
0.0174356
0.0167697
0.0161223
0.0155012
0.0149357
0.0144022
0.0139069
0.0134735
0.013084
0.0127213
0.0124024
0.012128
0.0118804
0.011651
0.0114477
0.0112709
0.0111102
0.0109594
0.0108144
0.0106856
0.0105679
0.0104528
0.0103397
0.0102263
0.0101211
0.0100182
0.00991346
0.00980751
0.00969892
0.00959059
0.00947926
0.00936365
0.00924598
0.00912982
0.0090199
0.0226372
0.0221497
0.0215569
0.0209014
0.020223
0.019531
0.0188589
0.0182011
0.0175645
0.0169769
0.0164195
0.015896
0.0154318
0.0150084
0.0146113
0.0142585
0.0139513
0.0136727
0.013412
0.0131777
0.0129729
0.0127864
0.0126093
0.0124407
0.0122889
0.0121486
0.0120128
0.0118781
0.0117448
0.0116194
0.0114986
0.0113758
0.0112519
0.0111261
0.0109991
0.0108695
0.0107356
0.0105997
0.0104651
0.0103362
0.024713
0.0242255
0.0236356
0.0229839
0.0223079
0.0216166
0.020941
0.020275
0.0196293
0.0190268
0.0184503
0.0179023
0.0174116
0.0169622
0.0165363
0.0161533
0.0158157
0.0155057
0.0152151
0.0149531
0.0147212
0.0145075
0.0143052
0.014111
0.0139365
0.013774
0.0136168
0.0134607
0.0133053
0.0131606
0.0130209
0.0128787
0.0127361
0.0125917
0.0124461
0.0122979
0.0121456
0.011991
0.0118376
0.0116894
0.0267739
0.0262865
0.0257
0.0250526
0.0243805
0.0236917
0.0230154
0.0223455
0.021693
0.0210794
0.0204885
0.019922
0.0194099
0.0189369
0.0184853
0.0180755
0.0177107
0.0173732
0.0170544
0.0167637
0.0165061
0.0162669
0.0160385
0.0158202
0.015621
0.0154354
0.0152572
0.0150803
0.0149037
0.0147389
0.0145796
0.0144177
0.0142556
0.0140918
0.0139273
0.0137604
0.0135892
0.0134157
0.0132432
0.0130755
0.0288218
0.0283344
0.0277512
0.0271087
0.026441
0.0257558
0.0250807
0.0244094
0.0237526
0.0231307
0.0225286
0.021948
0.0214184
0.0209248
0.0204494
0.0200153
0.0196259
0.0192647
0.0189205
0.0186038
0.0183195
0.0180563
0.0178039
0.0175618
0.0173389
0.0171298
0.0169285
0.016731
0.0165338
0.0163486
0.0161695
0.0159877
0.0158051
0.0156224
0.0154389
0.0152532
0.0150631
0.0148704
0.0146786
0.0144911
0.0308588
0.0303706
0.0297907
0.0291531
0.0284903
0.0278095
0.0271367
0.0264657
0.0258065
0.0251786
0.0245664
0.0239758
0.0234322
0.0229204
0.0224274
0.0219729
0.0215611
0.0211748
0.0208061
0.020466
0.0201572
0.019869
0.0195939
0.0193283
0.0190826
0.0188512
0.018627
0.0184089
0.0181911
0.0179845
0.0177861
0.0175851
0.0173829
0.0171808
0.0169781
0.0167733
0.016564
0.0163521
0.0161407
0.0159334
0.0328824
0.0323952
0.031819
0.0311867
0.0305293
0.0298532
0.0291836
0.0285141
0.0278543
0.0272226
0.0266038
0.0260044
0.025449
0.0249233
0.0244148
0.0239427
0.023511
0.0231028
0.0227105
0.0223456
0.0220126
0.0217024
0.0214044
0.0211137
0.0208462
0.0205953
0.02035
0.02011
0.0198727
0.0196459
0.0194266
0.0192068
0.0189854
0.0187641
0.018542
0.0183179
0.0180893
0.0178579
0.017627
0.0173999
0.0348958
0.0344097
0.0338376
0.0332108
0.0325588
0.0318879
0.031222
0.0305549
0.0298956
0.0292617
0.0286384
0.0280319
0.0274653
0.0269293
0.026408
0.0259205
0.0254712
0.0250431
0.0246279
0.0242416
0.0238864
0.0235524
0.0232321
0.0229207
0.022632
0.022361
0.022095
0.0218341
0.0215769
0.02133
0.0210905
0.0208513
0.0206104
0.0203696
0.020128
0.0198844
0.0196364
0.0193855
0.019135
0.0188884
0.0369005
0.0364156
0.0358476
0.0352264
0.0345802
0.0339146
0.0332526
0.0325884
0.0319305
0.0312956
0.0306695
0.0300579
0.0294833
0.0289375
0.0284047
0.0279035
0.0274384
0.0269926
0.0265573
0.0261493
0.0257746
0.0254195
0.0250786
0.0247461
0.0244364
0.0241453
0.023859
0.0235775
0.0233007
0.0230339
0.0227745
0.0225157
0.0222553
0.0219948
0.0217336
0.0214706
0.0212031
0.0209328
0.0206629
0.0203968
0.0388976
0.0384138
0.03785
0.0372347
0.0365945
0.035934
0.0352762
0.0346153
0.0339593
0.0333244
0.0326965
0.0320814
0.0315004
0.0309463
0.0304035
0.02989
0.0294101
0.0289486
0.0284956
0.0280685
0.0276753
0.0272993
0.0269367
0.0265855
0.0262559
0.025945
0.0256388
0.0253375
0.0250413
0.0247549
0.0244758
0.0241976
0.0239177
0.0236376
0.0233568
0.0230743
0.0227875
0.0224979
0.0222088
0.0219237
0.0408877
0.0404052
0.0398456
0.0392362
0.0386032
0.0379472
0.0372934
0.036636
0.0359826
0.0353483
0.0347196
0.034102
0.033516
0.0329548
0.0324033
0.0318786
0.0313842
0.0309089
0.0304404
0.0299957
0.0295827
0.0291891
0.0288074
0.0284375
0.0280883
0.0277567
0.0274321
0.0271117
0.0267965
0.0264907
0.0261922
0.0258949
0.0255955
0.0252956
0.0249955
0.0246939
0.024388
0.0240793
0.0237713
0.0234675
0.0428716
0.0423905
0.0418348
0.0412309
0.0406039
0.0399536
0.0393044
0.0386511
0.0380006
0.0373676
0.036739
0.0361197
0.0355297
0.0349625
0.0344035
0.0338693
0.0333632
0.0328733
0.0323908
0.03193
0.0314996
0.0310883
0.0306882
0.0303
0.029932
0.0295811
0.0292378
0.0288984
0.0285641
0.0282394
0.027922
0.0276058
0.0272871
0.0269668
0.0266482
0.0263279
0.0260032
0.0256758
0.0253491
0.0250274
0.0448497
0.0443701
0.0438185
0.04322
0.0425986
0.0419541
0.0413099
0.0406609
0.0400137
0.0393828
0.0387551
0.0381348
0.0375418
0.036969
0.0364032
0.0358609
0.0353462
0.0348442
0.0343464
0.0338698
0.0334239
0.0329949
0.0325769
0.0321708
0.0317848
0.0314157
0.0310542
0.0306961
0.0303418
0.0299994
0.0296638
0.0293291
0.0289916
0.0286523
0.0283148
0.0279757
0.0276323
0.0272862
0.0269414
0.0266023
0.0468224
0.0463446
0.0457973
0.0452044
0.0445881
0.0439493
0.0433105
0.0426663
0.0420224
0.0413937
0.0407687
0.0401472
0.0395527
0.038974
0.0384017
0.0378516
0.0373276
0.0368146
0.0363039
0.0358127
0.03535
0.0349061
0.0344715
0.0340473
0.0336451
0.0332588
0.0328799
0.0325037
0.032131
0.0317705
0.0314166
0.0310637
0.0307079
0.0303502
0.029994
0.0296361
0.029274
0.0289097
0.0285471
0.0281915
0.0487897
0.0483138
0.0477711
0.0471849
0.0465729
0.0459396
0.0453062
0.0446681
0.0440266
0.0433998
0.0427763
0.0421549
0.0415587
0.0409761
0.0403985
0.0398412
0.0393083
0.038785
0.0382626
0.0377583
0.0372808
0.0368221
0.0363718
0.0359312
0.0355126
0.0351095
0.0347137
0.0343201
0.0339295
0.0335512
0.0331794
0.0328086
0.0324348
0.0320601
0.0316846
0.0313079
0.0309274
0.0305452
0.0301656
0.0297945
0.0507514
0.0502776
0.0497395
0.0491585
0.048552
0.0479245
0.0472965
0.0466633
0.0460257
0.0454013
0.0447795
0.0441587
0.0435612
0.0429758
0.0423936
0.0418297
0.0412882
0.0407551
0.040222
0.0397055
0.0392146
0.0387417
0.0382767
0.0378205
0.0373862
0.0369668
0.0365544
0.0361438
0.035736
0.0353404
0.0349509
0.0345624
0.0341709
0.0337783
0.0333847
0.0329898
0.0325915
0.032192
0.0317962
0.0314109
0.0527072
0.0522358
0.0517034
0.0511265
0.0505256
0.0499044
0.0492821
0.0486536
0.0480202
0.0473987
0.0467788
0.0461591
0.045561
0.0449735
0.0443872
0.0438171
0.0432672
0.0427243
0.0421812
0.0416535
0.0411501
0.040664
0.0401849
0.039714
0.0392646
0.0388293
0.038401
0.0379739
0.0375494
0.0371369
0.0367302
0.0363243
0.0359153
0.0355051
0.0350937
0.0346811
0.0342655
0.0338494
0.0334385
0.0330406
0.0546563
0.0541877
0.0536594
0.053088
0.0524932
0.0518788
0.0512637
0.0506391
0.0500101
0.0493922
0.0487745
0.0481565
0.047558
0.0469703
0.0463797
0.0458032
0.0452452
0.0446916
0.0441398
0.0436017
0.0430865
0.0425878
0.0420954
0.0416107
0.0411467
0.0406962
0.0402522
0.0398094
0.0393687
0.0389398
0.0385164
0.0380935
0.0376673
0.0372397
0.036811
0.0363812
0.0359489
0.0355171
0.0350922
0.0346837
0.0565983
0.0561336
0.0556086
0.0550428
0.0544545
0.0538471
0.0532379
0.0526187
0.0519949
0.0513821
0.0507662
0.0501511
0.0495513
0.048962
0.0483701
0.0477878
0.0472221
0.0466592
0.0460978
0.0455495
0.0450231
0.0445124
0.0440074
0.0435094
0.0430315
0.0425662
0.042107
0.0416492
0.0411933
0.0407485
0.0403087
0.0398693
0.0394263
0.0389818
0.0385361
0.0380896
0.0376413
0.0371947
0.0367573
0.0363404
0.0585316
0.0580699
0.0575499
0.0569904
0.0564092
0.0558101
0.0552058
0.0545922
0.0539739
0.0533649
0.0527519
0.052139
0.0515397
0.0509488
0.0503547
0.0497695
0.0491971
0.0486246
0.0480539
0.0474959
0.0469587
0.0464369
0.04592
0.0454095
0.0449183
0.0444387
0.0439637
0.0434928
0.0430224
0.0425622
0.0421065
0.0416509
0.0411916
0.0407305
0.0402684
0.0398059
0.0393422
0.038882
0.0384338
0.0380113
0.0604562
0.0599975
0.059483
0.0589304
0.0583565
0.0577642
0.0571662
0.056559
0.0559477
0.0553418
0.054732
0.0541213
0.0535241
0.0529311
0.052334
0.0517439
0.0511648
0.0505849
0.0500062
0.0494394
0.0488925
0.0483601
0.0478321
0.04731
0.0468062
0.0463133
0.0458244
0.0453398
0.0448552
0.0443801
0.0439091
0.0434377
0.0429625
0.0424854
0.0420074
0.0415295
0.0410515
0.0405787
0.0401216
0.0396968
0.0623712
0.061916
0.0614074
0.0608625
0.0602968
0.0597104
0.0591188
0.0585184
0.0579129
0.0573116
0.0567067
0.0560971
0.0555006
0.0549081
0.0543087
0.0537123
0.0531249
0.0525392
0.0519539
0.0513793
0.0508234
0.0502814
0.0497431
0.04921
0.0486946
0.0481892
0.0476872
0.0471893
0.046691
0.0462016
0.0457157
0.045229
0.0447382
0.0442458
0.0437527
0.0432601
0.0427686
0.0422848
0.0418209
0.0413975
0.064276
0.0638245
0.0633222
0.0627859
0.0622266
0.0616472
0.061063
0.0604708
0.0598702
0.0592736
0.0586725
0.0580657
0.0574696
0.0568758
0.0562738
0.055674
0.0550797
0.0544878
0.0538962
0.0533145
0.0527506
0.0521997
0.0516519
0.0511088
0.0505825
0.0500654
0.0495511
0.0490406
0.0485292
0.048026
0.0475256
0.0470238
0.046518
0.0460111
0.0455036
0.0449972
0.0444934
0.044
0.0435319
0.043114
0.0661694
0.065722
0.0652262
0.0646972
0.0641454
0.0635741
0.0629976
0.0624124
0.0618186
0.0612284
0.0606305
0.0600274
0.059432
0.0588354
0.0582298
0.0576243
0.0570261
0.0564293
0.0558322
0.0552444
0.0546732
0.0541142
0.0535579
0.0530056
0.0524691
0.051941
0.0514153
0.0508928
0.050369
0.0498526
0.0493382
0.0488212
0.0483017
0.0477812
0.04726
0.0467407
0.0462255
0.0457241
0.0452544
0.0448469
0.0680504
0.0676075
0.0671196
0.0665969
0.0660531
0.0654907
0.064923
0.0643439
0.0637577
0.0631717
0.062579
0.0619777
0.0613829
0.0607861
0.0601773
0.0595665
0.0589639
0.0583628
0.0577611
0.0571679
0.0565903
0.0560242
0.0554601
0.0548994
0.0543536
0.0538154
0.053279
0.0527453
0.0522097
0.0516808
0.0511532
0.0506225
0.0500896
0.0495557
0.0490215
0.0484899
0.0479645
0.0474568
0.0469885
0.0465965
0.0699179
0.0694794
0.0689983
0.0684837
0.0679489
0.0673962
0.0668354
0.0662635
0.0656837
0.065103
0.0645146
0.063917
0.0633224
0.0627236
0.0621099
0.0614971
0.0608917
0.0602873
0.0596819
0.0590843
0.0585012
0.0579288
0.0573578
0.0567896
0.0562352
0.0556877
0.0551413
0.054597
0.0540504
0.0535098
0.0529698
0.0524265
0.0518807
0.051334
0.0507874
0.0502444
0.0497099
0.0491978
0.0487338
0.0483631
0.0717711
0.0713368
0.0708625
0.0703567
0.0698318
0.069287
0.0687346
0.0681715
0.0675976
0.0670233
0.0664382
0.0658412
0.065246
0.0646441
0.0640298
0.0634159
0.0628086
0.0622019
0.0615938
0.0609927
0.060405
0.0598272
0.0592502
0.0586752
0.0581131
0.057557
0.0570014
0.0564474
0.0558904
0.0553387
0.0547872
0.0542319
0.053674
0.0531153
0.052557
0.0520035
0.0514611
0.0509463
0.05049
0.0501464
0.073609
0.073179
0.0727113
0.0722152
0.0716982
0.0711627
0.07062
0.0700641
0.069498
0.0689284
0.0683454
0.0677513
0.0671555
0.0665513
0.0659364
0.0653222
0.0647139
0.0641058
0.063496
0.0628922
0.062301
0.0617186
0.0611364
0.0605555
0.0599865
0.0594226
0.0588585
0.0582953
0.0577286
0.0571666
0.0566044
0.0560381
0.0554688
0.0548988
0.0543296
0.0537664
0.0532173
0.0527018
0.0522564
0.0519459
0.0754308
0.0750048
0.0745432
0.0740553
0.0735477
0.0730226
0.072488
0.0719411
0.0713812
0.0708148
0.0702359
0.069643
0.0690452
0.0684423
0.0678287
0.0672151
0.0666069
0.0659983
0.0653876
0.0647822
0.0641883
0.0636023
0.0630157
0.0624297
0.0618546
0.0612836
0.0607118
0.0601401
0.0595638
0.0589927
0.0584207
0.0578441
0.0572643
0.0566837
0.0561044
0.0555324
0.0549777
0.0544632
0.0540319
0.0537606
0.0772355
0.0768134
0.0763576
0.0758773
0.0753797
0.0748633
0.0743386
0.0737991
0.0732441
0.0726825
0.0721062
0.071513
0.0709178
0.0703173
0.0697059
0.069094
0.0684867
0.0678786
0.067268
0.0666619
0.0660663
0.0654775
0.0648872
0.0642968
0.0637163
0.0631391
0.0625603
0.061981
0.0613963
0.0608166
0.0602354
0.0596492
0.0590597
0.0584693
0.0578806
0.0573006
0.0567414
0.0562296
0.0558154
0.0555891
0.0790225
0.0786042
0.0781538
0.0776801
0.0771908
0.0766845
0.0761683
0.0756354
0.0750875
0.0745283
0.0739536
0.0733648
0.0727732
0.0721759
0.0715676
0.0709583
0.0703528
0.069746
0.0691362
0.0685306
0.0679345
0.0673434
0.0667501
0.066156
0.0655708
0.0649881
0.0644031
0.0638169
0.0632249
0.0626371
0.0620474
0.0614526
0.0608544
0.0602548
0.0596571
0.0590699
0.0585071
0.0579995
0.0576052
0.0574295
0.0807908
0.0803764
0.0799311
0.0794637
0.0789812
0.0784828
0.0779746
0.0774507
0.0769096
0.0763537
0.0757828
0.0751985
0.0746111
0.0740177
0.0734134
0.0728074
0.0722044
0.0715996
0.0709916
0.0703872
0.0697927
0.0691991
0.0686032
0.0680062
0.067417
0.0668296
0.0662392
0.0656469
0.0650482
0.0644531
0.0638557
0.0632531
0.0626481
0.0620391
0.061433
0.0608391
0.0602736
0.0597717
0.0593998
0.0592793
0.0825396
0.0821293
0.0816891
0.0812276
0.0807516
0.08026
0.0797589
0.0792423
0.0787081
0.078158
0.0775925
0.0770136
0.0764312
0.0758424
0.0752426
0.0746406
0.0740408
0.0734387
0.072833
0.0722303
0.0716367
0.0710426
0.0704453
0.0698463
0.0692541
0.0686626
0.0680675
0.0674698
0.0668652
0.0662635
0.0656591
0.0650492
0.0644369
0.0638201
0.0632065
0.0626068
0.0620396
0.0615445
0.0611971
0.061136
0.0842681
0.083862
0.0834271
0.0829715
0.0825017
0.0820168
0.0815223
0.0810125
0.0804852
0.0799416
0.0793824
0.0788096
0.0782328
0.0776493
0.0770546
0.0764573
0.0758614
0.0752626
0.0746599
0.0740595
0.0734671
0.0728732
0.0722756
0.0716755
0.071081
0.0704861
0.0698869
0.0692845
0.0686746
0.0680671
0.0674564
0.0668399
0.0662206
0.0655969
0.0649767
0.064372
0.0638038
0.0633164
0.0629949
0.0629964
0.0859754
0.0855736
0.0851442
0.0846947
0.0842312
0.0837529
0.083265
0.0827619
0.0822416
0.0817048
0.0811523
0.0805863
0.0800156
0.0794379
0.0788488
0.0782566
0.0776652
0.0770705
0.0764715
0.075874
0.0752833
0.0746903
0.0740932
0.0734931
0.0728968
0.0722991
0.0716964
0.0710895
0.0704752
0.0698628
0.0692465
0.0686242
0.0679987
0.0673687
0.0667427
0.0661336
0.0655649
0.0650858
0.0647912
0.0648575
0.0876605
0.0872635
0.0868397
0.0863964
0.0859394
0.0854678
0.0849865
0.0844903
0.083977
0.0834473
0.082902
0.082343
0.0817789
0.0812074
0.0806245
0.080038
0.0794515
0.0788615
0.0782669
0.0776735
0.0770848
0.0764931
0.075897
0.0752989
0.0747004
0.0741003
0.0734949
0.0728831
0.0722657
0.0716494
0.0710285
0.0704011
0.0697702
0.0691346
0.0685033
0.0678903
0.0673215
0.0668509
0.0665837
0.0667158
0.0893227
0.0889306
0.0885126
0.0880758
0.0876254
0.0871607
0.0866863
0.0861971
0.0856911
0.0851686
0.0846307
0.0840791
0.083522
0.0829571
0.0823808
0.0818004
0.0812195
0.0806347
0.0800453
0.0794577
0.0788705
0.0782803
0.0776855
0.0770885
0.0764896
0.0758883
0.0752819
0.0746664
0.0740459
0.0734261
0.0728014
0.0721698
0.0715342
0.0708937
0.0702576
0.0696411
0.0690723
0.0686103
0.0683701
0.0685682
0.0909611
0.0905741
0.0901623
0.089732
0.0892885
0.0888309
0.0883635
0.0878816
0.087383
0.0868681
0.0863379
0.085794
0.0852442
0.0846863
0.084117
0.0835432
0.0829683
0.0823892
0.0818052
0.0812224
0.0806384
0.0800506
0.0794578
0.078862
0.0782634
0.0776612
0.0770523
0.0764361
0.0758139
0.0751917
0.0745642
0.0739296
0.0732899
0.0726448
0.0720043
0.0713846
0.070816
0.0703621
0.0701483
0.0704114
0.0925749
0.0921934
0.0917878
0.0913644
0.0909279
0.0904777
0.0900175
0.089543
0.0890522
0.0885451
0.0880228
0.0874869
0.0869446
0.0863942
0.0858322
0.0852654
0.0846971
0.0841242
0.083546
0.0829681
0.0823879
0.0818032
0.081213
0.080619
0.0800212
0.079419
0.0788093
0.0781924
0.0775691
0.0769452
0.0763158
0.0756801
0.075036
0.0743867
0.0737423
0.0731197
0.0725511
0.0721049
0.0719163
0.0722425
0.0941635
0.0937876
0.0933885
0.0929722
0.0925429
0.0921001
0.0916475
0.0911807
0.0906978
0.0901988
0.0896847
0.089157
0.0886227
0.0880799
0.0875257
0.0869663
0.0864051
0.0858391
0.0852677
0.0846946
0.0841184
0.0835373
0.0829507
0.0823587
0.0817621
0.0811604
0.0805509
0.0799339
0.0793104
0.0786855
0.0780546
0.0774171
0.0767702
0.0761178
0.0754702
0.074845
0.0742765
0.0738372
0.073672
0.0740587
0.0957261
0.0953561
0.0949637
0.0945545
0.0941327
0.0936976
0.0932527
0.0927939
0.0923192
0.0918285
0.0913228
0.0908036
0.0902774
0.0897427
0.0891965
0.0886451
0.0880914
0.087533
0.0869699
0.0864009
0.0858287
0.0852518
0.0846705
0.08408
0.0834847
0.0828842
0.0822757
0.0816596
0.0810366
0.0804115
0.0797796
0.0791407
0.0784919
0.0778371
0.0771869
0.0765595
0.0759909
0.0755576
0.0754138
0.0758576
0.0972622
0.0968982
0.0965127
0.0961109
0.0956967
0.0952695
0.0948325
0.0943818
0.0939156
0.0934334
0.0929364
0.0924259
0.0919082
0.0913818
0.090844
0.0903008
0.0897552
0.0892049
0.0886486
0.088085
0.0875175
0.086945
0.0863678
0.0857805
0.0851877
0.084589
0.0839825
0.0833683
0.0827472
0.0821224
0.0814899
0.08085
0.0802
0.0795435
0.0788913
0.078262
0.0776931
0.0772648
0.0771401
0.0776372
0.0987711
0.0984134
0.0980349
0.0976406
0.0972342
0.096815
0.0963861
0.0959438
0.0954864
0.0950131
0.0945249
0.0940233
0.0935143
0.0929964
0.0924674
0.0919328
0.0913957
0.0908551
0.0903044
0.0897463
0.0891839
0.088616
0.088043
0.0874596
0.0868701
0.0862735
0.0856703
0.0850593
0.084442
0.0838172
0.0831841
0.0825441
0.0818936
0.0812363
0.0805826
0.0799517
0.0793823
0.0789579
0.0788497
0.0793956
0.100252
0.0999011
0.0995298
0.0991431
0.0987446
0.0983336
0.097913
0.0974794
0.097031
0.0965669
0.0960877
0.0955951
0.0950949
0.0945859
0.0940659
0.0935403
0.0930119
0.0924793
0.0919356
0.0913839
0.0908272
0.0902643
0.0896954
0.0891167
0.0885315
0.0879386
0.0873386
0.0867314
0.086117
0.0854938
0.0848617
0.0842224
0.0835721
0.0829144
0.0822598
0.0816276
0.0810574
0.0806357
0.0805413
0.0811314
0.101705
0.101361
0.100997
0.100618
0.100227
0.0998248
0.0994126
0.0989878
0.0985488
0.0980946
0.0976243
0.0971406
0.0966494
0.0961495
0.0956389
0.0951227
0.0946035
0.0940786
0.0935421
0.0929972
0.0924468
0.0918893
0.0913239
0.0907513
0.0901712
0.0895831
0.088988
0.0883848
0.0877732
0.0871521
0.0865218
0.0858838
0.0852344
0.0845771
0.0839221
0.0832888
0.0827176
0.0822973
0.0822141
0.0828434
0.10313
0.102792
0.102436
0.102065
0.101682
0.101288
0.100884
0.100468
0.100039
0.0995962
0.0991338
0.0986591
0.0981771
0.0976866
0.0971859
0.0966796
0.0961711
0.0956527
0.0951233
0.0945857
0.0940423
0.0934909
0.0929309
0.0923637
0.0917886
0.091206
0.0906178
0.0900189
0.0894095
0.088791
0.0881632
0.0875274
0.0868797
0.0862234
0.0855685
0.0849345
0.0843621
0.0839421
0.0838672
0.0845307
0.104526
0.104195
0.103846
0.103483
0.103109
0.102723
0.102328
0.101921
0.101501
0.101068
0.100615
0.10015
0.0996774
0.0991967
0.0987061
0.0982102
0.0977104
0.0971999
0.0966783
0.0961487
0.0956133
0.0950686
0.0945145
0.0939528
0.0933823
0.0928059
0.0922237
0.0916298
0.0910239
0.0904091
0.0897853
0.0891526
0.0885072
0.0878525
0.0871983
0.0865637
0.0859899
0.0855691
0.0854999
0.0861925
0.105893
0.105569
0.105227
0.104872
0.104507
0.104129
0.103743
0.103345
0.102934
0.10251
0.102067
0.101612
0.10115
0.100679
0.100199
0.0997148
0.0992224
0.0987197
0.0982064
0.0976855
0.0971601
0.0966213
0.0960734
0.0955177
0.0949531
0.0943828
0.0938065
0.0932181
0.0926172
0.092007
0.091388
0.0907588
0.0901162
0.0894635
0.0888104
0.0881756
0.0876003
0.0871778
0.0871115
0.0878282
0.10723
0.106913
0.10658
0.106233
0.105875
0.105507
0.105129
0.10474
0.104338
0.103924
0.103491
0.103046
0.102594
0.102134
0.101665
0.10119
0.100706
0.100212
0.0997071
0.0991952
0.0986784
0.0981474
0.0976065
0.0970573
0.0964995
0.0959359
0.095366
0.0947836
0.0941884
0.0935838
0.0929713
0.0923452
0.0917056
0.0910554
0.0904039
0.0897693
0.0891925
0.0887673
0.0887016
0.0894375
0.108538
0.108228
0.107902
0.107564
0.107215
0.106855
0.106486
0.106106
0.105714
0.105309
0.104886
0.104451
0.10401
0.103561
0.103103
0.102636
0.10216
0.101675
0.10118
0.100678
0.10017
0.0996466
0.0991132
0.0985705
0.0980209
0.0974648
0.0969018
0.0963258
0.0957368
0.0951381
0.0945312
0.0939097
0.093274
0.0926272
0.0919779
0.0913439
0.0907657
0.0903372
0.0902697
0.09102
0.109816
0.109514
0.109196
0.108866
0.108525
0.108174
0.107814
0.107443
0.10706
0.106665
0.106252
0.105828
0.105396
0.10496
0.104511
0.104052
0.103586
0.10311
0.102625
0.102134
0.101634
0.101119
0.100594
0.100059
0.0995177
0.0989694
0.0984135
0.0978442
0.0972617
0.0966692
0.096068
0.0954517
0.0948208
0.0941779
0.0935315
0.0928987
0.0923192
0.0918868
0.0918155
0.0925758
0.111064
0.110769
0.11046
0.110138
0.109806
0.109463
0.109112
0.10875
0.108377
0.107992
0.107589
0.107175
0.106753
0.106326
0.105887
0.105439
0.104982
0.104516
0.104042
0.103561
0.103069
0.102563
0.102047
0.101521
0.100989
0.10045
0.0999005
0.0993379
0.0987621
0.0981767
0.0975815
0.0969708
0.096345
0.0957068
0.0950639
0.0944329
0.0938524
0.0934157
0.0933387
0.0941048
0.112283
0.111996
0.111694
0.11138
0.111057
0.110723
0.110381
0.110028
0.109665
0.10929
0.108897
0.108493
0.108081
0.107663
0.107234
0.106795
0.106348
0.105893
0.105431
0.104958
0.104475
0.103981
0.103473
0.102957
0.102436
0.101905
0.101362
0.100806
0.100237
0.0996605
0.099071
0.0984661
0.0978461
0.0972131
0.0965745
0.0959459
0.0953648
0.0949235
0.0948391
0.0956071
0.113472
0.113192
0.112898
0.112593
0.112278
0.111953
0.11162
0.111277
0.110923
0.110558
0.110177
0.109782
0.109379
0.108969
0.108551
0.108123
0.107686
0.10724
0.106788
0.106325
0.105852
0.105368
0.10487
0.104366
0.103853
0.10333
0.102795
0.102246
0.101685
0.101117
0.100534
0.0999365
0.0993232
0.0986964
0.0980627
0.0974371
0.0968559
0.0964099
0.0963167
0.0970829
0.114632
0.114359
0.114073
0.113776
0.11347
0.113154
0.11283
0.112496
0.112152
0.111797
0.111428
0.111042
0.110649
0.110248
0.10984
0.109421
0.108995
0.108559
0.108116
0.107663
0.1072
0.106725
0.106239
0.105745
0.105241
0.104726
0.104199
0.103659
0.103107
0.102546
0.101972
0.101382
0.100776
0.100156
0.0995281
0.0989062
0.0983254
0.0978746
0.0977714
0.098532
0.115762
0.115497
0.115219
0.11493
0.114633
0.114326
0.114011
0.113686
0.113351
0.113006
0.112648
0.112273
0.111889
0.111498
0.111099
0.110691
0.110274
0.109848
0.109415
0.108971
0.108518
0.108055
0.10758
0.107095
0.1066
0.106094
0.105576
0.105044
0.104501
0.10395
0.103384
0.102802
0.102205
0.101592
0.10097
0.100353
0.099773
0.0993175
0.0992031
0.0999545
0.116862
0.116605
0.116335
0.116055
0.115766
0.115468
0.115162
0.114846
0.114521
0.114186
0.113838
0.113473
0.1131
0.112719
0.112331
0.111933
0.111526
0.111109
0.110683
0.110251
0.109809
0.109355
0.108891
0.108416
0.107931
0.107434
0.106925
0.106403
0.105869
0.105327
0.104771
0.104198
0.103609
0.103004
0.102389
0.101777
0.101198
0.100738
0.100612
0.101351
0.117934
0.117684
0.117422
0.117151
0.11687
0.116581
0.116283
0.115977
0.115661
0.115336
0.114999
0.114645
0.114282
0.113911
0.113533
0.113145
0.112748
0.112341
0.111925
0.111503
0.111071
0.110628
0.110173
0.109709
0.109233
0.108747
0.108247
0.107735
0.107211
0.106679
0.106132
0.105568
0.104988
0.104392
0.103785
0.103178
0.102602
0.102137
0.101998
0.102721
0.118977
0.118735
0.118481
0.118217
0.117946
0.117665
0.117376
0.117079
0.116773
0.116458
0.116131
0.115788
0.115435
0.115074
0.114705
0.114328
0.113942
0.113545
0.113139
0.112726
0.112305
0.111872
0.111428
0.110973
0.110508
0.110031
0.109543
0.109041
0.108527
0.108005
0.107468
0.106914
0.106343
0.105756
0.105157
0.104556
0.103982
0.103514
0.10336
0.104065
0.119991
0.119757
0.119511
0.119256
0.118992
0.11872
0.118441
0.118153
0.117856
0.117551
0.117234
0.116902
0.11656
0.116209
0.115849
0.115483
0.115107
0.114721
0.114325
0.113921
0.11351
0.113089
0.112655
0.11221
0.111755
0.111289
0.110811
0.11032
0.109817
0.109305
0.108778
0.108234
0.107673
0.107096
0.106505
0.105911
0.10534
0.104868
0.104701
0.105383
0.120978
0.12075
0.120512
0.120266
0.120011
0.119747
0.119477
0.119198
0.11891
0.118615
0.118309
0.11799
0.117657
0.117316
0.116966
0.116609
0.116244
0.115869
0.115484
0.11509
0.114689
0.114278
0.113855
0.11342
0.112975
0.11252
0.112052
0.111572
0.111083
0.110581
0.110064
0.10953
0.108979
0.108411
0.107829
0.107242
0.106675
0.1062
0.106018
0.106677
0.121936
0.121716
0.121486
0.121248
0.121001
0.120746
0.120485
0.120215
0.119937
0.119651
0.119355
0.119047
0.118725
0.118394
0.118054
0.117708
0.117353
0.116989
0.116614
0.116231
0.11584
0.115439
0.115027
0.114604
0.114169
0.113724
0.113267
0.112799
0.112322
0.11183
0.111324
0.1108
0.110259
0.109701
0.109129
0.10855
0.107987
0.107509
0.107313
0.107945
0.122867
0.122655
0.122433
0.122202
0.121964
0.121718
0.121465
0.121204
0.120935
0.120659
0.120373
0.120076
0.119765
0.119445
0.119115
0.118779
0.118435
0.118081
0.117717
0.117344
0.116963
0.116573
0.116172
0.11576
0.115337
0.114902
0.114457
0.114001
0.113534
0.113054
0.112558
0.112045
0.111514
0.110967
0.110404
0.109833
0.109275
0.108795
0.108584
0.109188
0.123771
0.123566
0.123352
0.123129
0.1229
0.122662
0.122418
0.122166
0.121906
0.121639
0.121363
0.121077
0.120778
0.120468
0.120149
0.119822
0.119489
0.119146
0.118793
0.118431
0.11806
0.117681
0.117291
0.116889
0.116477
0.116054
0.11562
0.115177
0.114721
0.114251
0.113766
0.113264
0.112744
0.112207
0.111655
0.111093
0.11054
0.110059
0.109834
0.110407
0.124648
0.124451
0.124244
0.12403
0.123808
0.12358
0.123344
0.123101
0.122851
0.122593
0.122327
0.122051
0.121765
0.121465
0.121155
0.120839
0.120516
0.120184
0.119842
0.119491
0.119131
0.118761
0.118382
0.117992
0.117591
0.11718
0.116757
0.116326
0.115882
0.115423
0.114949
0.114458
0.113949
0.113423
0.112881
0.112328
0.111782
0.111299
0.11106
0.111601
0.1255
0.12531
0.125111
0.124904
0.124691
0.124471
0.124244
0.12401
0.123768
0.12352