/*--------------------------------*- C++ -*----------------------------------*\
| =========                 |                                                 |
| \\      /  F ield         | OpenFOAM: The Open Source CFD Toolbox           |
|  \\    /   O peration     | Version:  3.0.1                                 |
|   \\  /    A nd           | Web:      www.OpenFOAM.org                      |
|    \\/     M anipulation  |                                                 |
\*---------------------------------------------------------------------------*/
FoamFile
{
    version     2.0;
    format      ascii;
    class       volScalarField;
    location    "300";
    object      p;
}
// * * * * * * * * * * * * * * * * * * * * * * * * * * * * * * * * * * * * * //

dimensions      [0 2 -2 0 0 0 0];

internalField   nonuniform List<scalar> 
58000
(
-0.0394445
-0.318353
-0.53474
-0.662216
-0.736483
-0.7891
-0.82428
-0.846465
-0.859162
-0.862283
-0.859557
-0.852832
-0.841824
-0.828849
-0.816138
-0.804099
-0.792303
-0.781466
-0.771612
-0.762221
-0.75275
-0.743895
-0.735684
-0.727684
-0.719404
-0.710993
-0.703098
-0.695493
-0.687835
-0.679913
-0.671934
-0.664381
-0.657077
-0.649756
-0.642228
-0.633549
-0.621759
-0.609475
-0.599822
-0.592362
0.231212
0.107877
-0.0297485
-0.167764
-0.288707
-0.392561
-0.479418
-0.556585
-0.61882
-0.66609
-0.702132
-0.726657
-0.741125
-0.749092
-0.751332
-0.749018
-0.744343
-0.73837
-0.731493
-0.724092
-0.716564
-0.709106
-0.701541
-0.693913
-0.686202
-0.678793
-0.671385
-0.663914
-0.656359
-0.648745
-0.641431
-0.634144
-0.626794
-0.619302
-0.611688
-0.603932
-0.59534
-0.586671
-0.579836
-0.575878
0.163153
0.0726801
-0.0217108
-0.120698
-0.214548
-0.302084
-0.38089
-0.450003
-0.511372
-0.561252
-0.601814
-0.634068
-0.657117
-0.672873
-0.683363
-0.689021
-0.690925
-0.690385
-0.688195
-0.684792
-0.680524
-0.675642
-0.670302
-0.664663
-0.658841
-0.652869
-0.646655
-0.640288
-0.6338
-0.627306
-0.620782
-0.614113
-0.607341
-0.600452
-0.593502
-0.586478
-0.579182
-0.571816
-0.564964
-0.55857
0.171762
0.112684
0.0470965
-0.0271702
-0.104555
-0.182385
-0.256317
-0.324974
-0.388275
-0.442795
-0.49019
-0.530633
-0.562384
-0.586906
-0.60616
-0.619873
-0.628656
-0.634053
-0.636976
-0.637777
-0.636875
-0.634781
-0.631817
-0.628151
-0.623934
-0.619318
-0.614325
-0.609019
-0.603423
-0.597667
-0.591827
-0.585795
-0.57959
-0.573204
-0.566714
-0.560224
-0.553681
-0.547102
-0.54068
-0.534471
0.148103
0.104915
0.0585208
0.00479336
-0.0538319
-0.116235
-0.179459
-0.240742
-0.300214
-0.353765
-0.402154
-0.445496
-0.481497
-0.510817
-0.535407
-0.554667
-0.568655
-0.578892
-0.586304
-0.591098
-0.593579
-0.594378
-0.59398
-0.592576
-0.590317
-0.587319
-0.583766
-0.579757
-0.575329
-0.570628
-0.565672
-0.560444
-0.554984
-0.5493
-0.543491
-0.537631
-0.531701
-0.525679
-0.519601
-0.513453
0.134186
0.100437
0.0648181
0.023675
-0.0218156
-0.0715285
-0.124057
-0.176756
-0.230043
-0.279989
-0.326769
-0.3703
-0.408084
-0.440206
-0.468345
-0.491613
-0.509671
-0.52392
-0.535198
-0.543551
-0.549168
-0.552747
-0.554857
-0.55568
-0.555332
-0.553961
-0.55187
-0.549175
-0.545917
-0.542229
-0.538153
-0.533735
-0.529017
-0.524014
-0.518821
-0.513519
-0.508114
-0.50257
-0.496877
-0.491052
0.120003
0.0926818
0.0643787
0.031861
-0.00417309
-0.0440119
-0.0872865
-0.131662
-0.178033
-0.222943
-0.266232
-0.307839
-0.345308
-0.378231
-0.408042
-0.433703
-0.454521
-0.471717
-0.48602
-0.497331
-0.505684
-0.51177
-0.516202
-0.519143
-0.520676
-0.520931
-0.520315
-0.518958
-0.516907
-0.514288
-0.511142
-0.507576
-0.503641
-0.499357
-0.494817
-0.490097
-0.48522
-0.48015
-0.474858
-0.469372
0.10807
0.0851333
0.0617446
0.0351192
0.00576151
-0.0267501
-0.0626224
-0.0998702
-0.139726
-0.179311
-0.21834
-0.256855
-0.292628
-0.324921
-0.354948
-0.381638
-0.40404
-0.423171
-0.439633
-0.453205
-0.463772
-0.471971
-0.478427
-0.483261
-0.486518
-0.488298
-0.489085
-0.489013
-0.488131
-0.486554
-0.484325
-0.481601
-0.47844
-0.474864
-0.470965
-0.466813
-0.46245
-0.457847
-0.452969
-0.447867
0.0976573
0.0779551
0.058107
0.0356994
0.0111633
-0.0159253
-0.0460495
-0.0775075
-0.111702
-0.1463
-0.180996
-0.215955
-0.249262
-0.280003
-0.309214
-0.335886
-0.358897
-0.379061
-0.396866
-0.412005
-0.424235
-0.434107
-0.442224
-0.448661
-0.453429
-0.456581
-0.458651
-0.459771
-0.459986
-0.459402
-0.458056
-0.456148
-0.453738
-0.450852
-0.447579
-0.443985
-0.440128
-0.435985
-0.431523
-0.426813
0.0886281
0.0713828
0.0541767
0.0348982
0.0139391
-0.00908473
-0.0347626
-0.0616149
-0.0910928
-0.121307
-0.151973
-0.183368
-0.213904
-0.242601
-0.270356
-0.296272
-0.319146
-0.339619
-0.358076
-0.37416
-0.387526
-0.398624
-0.408019
-0.41574
-0.421767
-0.426097
-0.429292
-0.431474
-0.43268
-0.433008
-0.432482
-0.431339
-0.429638
-0.427407
-0.424731
-0.42167
-0.418299
-0.414602
-0.410546
-0.406226
0.0807509
0.0654375
0.0502735
0.0333944
0.0151645
-0.00475005
-0.026961
-0.0501611
-0.075772
-0.102251
-0.129353
-0.157426
-0.185177
-0.211638
-0.237602
-0.262299
-0.284522
-0.304768
-0.323334
-0.339841
-0.353876
-0.36579
-0.376099
-0.384784
-0.391808
-0.397105
-0.401246
-0.404341
-0.406413
-0.407553
-0.407771
-0.407326
-0.406277
-0.404652
-0.402531
-0.399972
-0.39706
-0.393787
-0.390121
-0.386179
0.0738467
0.060092
0.0465506
0.0315642
0.0154737
-0.00200865
-0.0214769
-0.0417644
-0.0642189
-0.0875611
-0.111586
-0.136679
-0.1618
-0.186034
-0.210086
-0.233317
-0.254561
-0.274205
-0.292478
-0.309001
-0.32332
-0.335695
-0.346591
-0.355949
-0.363715
-0.369769
-0.374673
-0.378521
-0.381326
-0.383169
-0.384041
-0.384216
-0.383753
-0.382675
-0.381062
-0.378965
-0.376478
-0.373599
-0.370299
-0.366717
0.0677642
0.0552952
0.0430749
0.0296179
0.0152439
-0.00029464
-0.0175577
-0.035497
-0.0553657
-0.0760852
-0.0974825
-0.119961
-0.142685
-0.164807
-0.18696
-0.208625
-0.228708
-0.247511
-0.265216
-0.281456
-0.295755
-0.3083
-0.319506
-0.329281
-0.33756
-0.344173
-0.349665
-0.35411
-0.357513
-0.359943
-0.361374
-0.362088
-0.362137
-0.361545
-0.360386
-0.358707
-0.356607
-0.354089
-0.351127
-0.347879
0.0623791
0.0509907
0.0398677
0.0276729
0.0147049
0.000749729
-0.0147107
-0.0307301
-0.0484623
-0.0669841
-0.0861473
-0.106355
-0.126933
-0.14711
-0.167456
-0.187557
-0.206402
-0.224234
-0.24119
-0.256936
-0.270991
-0.28348
-0.29477
-0.304746
-0.313337
-0.320334
-0.326252
-0.331151
-0.335022
-0.337928
-0.339822
-0.340989
-0.341477
-0.341306
-0.340547
-0.339238
-0.337484
-0.335292
-0.332636
-0.329695
0.0575892
0.0471238
0.0369283
0.0257937
0.0139983
0.00135655
-0.0126072
-0.0270351
-0.0429833
-0.0596526
-0.0769145
-0.0951581
-0.113836
-0.132251
-0.150921
-0.169518
-0.187119
-0.203919
-0.22003
-0.235143
-0.248793
-0.261056
-0.272256
-0.282258
-0.290991
-0.298218
-0.304422
-0.309644
-0.313864
-0.31714
-0.319407
-0.320946
-0.321801
-0.321987
-0.32157
-0.320584
-0.319135
-0.31723
-0.314848
-0.312185
0.0533105
0.0436441
0.0342443
0.0240141
0.0132121
0.00167647
-0.0110264
-0.0241175
-0.0385606
-0.053656
-0.0692923
-0.0858378
-0.102841
-0.119678
-0.136817
-0.153999
-0.170389
-0.186149
-0.201367
-0.215768
-0.228907
-0.240823
-0.251799
-0.261692
-0.270432
-0.27776
-0.284127
-0.289558
-0.294022
-0.297572
-0.300128
-0.301963
-0.303115
-0.303597
-0.303468
-0.302758
-0.30157
-0.299917
-0.297775
-0.295358
0.0494725
0.0405053
0.0317972
0.022349
0.0124003
0.00180987
-0.00981707
-0.0217716
-0.0349312
-0.0486787
-0.0629159
-0.077987
-0.0935171
-0.108947
-0.124699
-0.14057
-0.155808
-0.17055
-0.184869
-0.198517
-0.21108
-0.222566
-0.233224
-0.242906
-0.251547
-0.258873
-0.265299
-0.27084
-0.275457
-0.279195
-0.281964
-0.284026
-0.285411
-0.28613
-0.286238
-0.285758
-0.284792
-0.283354
-0.281421
-0.279221
0.0460164
0.0376676
0.029567
0.0208032
0.0115965
0.00182341
-0.00887419
-0.019851
-0.0319052
-0.0444883
-0.0575128
-0.0712982
-0.0855302
-0.099706
-0.114208
-0.128876
-0.143035
-0.156801
-0.170238
-0.183125
-0.195075
-0.206079
-0.216354
-0.225751
-0.234211
-0.241451
-0.247853
-0.253422
-0.258114
-0.261966
-0.264881
-0.267106
-0.268667
-0.269571
-0.269868
-0.269576
-0.268794
-0.267537
-0.265783
-0.26377
0.0428937
0.0350962
0.0275346
0.0193753
0.0108207
0.00176253
-0.00812402
-0.0182511
-0.0293437
-0.0409126
-0.0528791
-0.0655373
-0.0786214
-0.0916791
-0.105056
-0.118626
-0.131783
-0.144627
-0.157214
-0.16935
-0.180676
-0.191167
-0.201018
-0.210078
-0.218295
-0.225385
-0.231697
-0.237228
-0.241929
-0.245832
-0.248834
-0.251169
-0.252854
-0.253895
-0.254338
-0.254196
-0.253564
-0.252455
-0.250851
-0.248999
0.0400634
0.0327612
0.0256814
0.0180608
0.010085
0.00165815
-0.00751376
-0.0168951
-0.0271444
-0.0378227
-0.0488594
-0.0605238
-0.0725887
-0.0846471
-0.0970113
-0.109581
-0.121813
-0.133795
-0.145575
-0.156982
-0.167686
-0.177652
-0.187053
-0.195743
-0.203673
-0.210565
-0.216736
-0.222177
-0.226834
-0.230736
-0.233775
-0.236171
-0.237936
-0.239073
-0.239623
-0.239596
-0.239082
-0.238093
-0.236614
-0.234895
0.0374905
0.0306364
0.023991
0.016854
0.00939571
0.0015315
-0.00700551
-0.015727
-0.0252304
-0.0351211
-0.0453351
-0.0561183
-0.0672747
-0.0784377
-0.0898888
-0.101548
-0.11293
-0.12411
-0.135129
-0.145837
-0.155932
-0.165374
-0.174315
-0.182614
-0.190228
-0.196887
-0.202878
-0.208187
-0.212757
-0.216615
-0.21965
-0.222067
-0.223874
-0.22507
-0.225695
-0.225752
-0.225327
-0.224433
-0.223053
-0.221445
0.035145
0.028699
0.0224476
0.015748
0.00875581
0.00139622
-0.00657229
-0.0147052
-0.0235444
-0.0327335
-0.0422149
-0.0522123
-0.0625552
-0.0729133
-0.0835401
-0.0943716
-0.104971
-0.115406
-0.125713
-0.135756
-0.145263
-0.154189
-0.162669
-0.170568
-0.177848
-0.184249
-0.190032
-0.195177
-0.199628
-0.203407
-0.206405
-0.208809
-0.210625
-0.21185
-0.21252
-0.212634
-0.212274
-0.211451
-0.21015
-0.208631
0.0330015
0.0269289
0.0210371
0.0147353
0.00816552
0.00126188
-0.00619433
-0.0137986
-0.0220421
-0.0306025
-0.0394274
-0.04872
-0.0583311
-0.0679627
-0.0778432
-0.0879207
-0.0978016
-0.107547
-0.117187
-0.126604
-0.135548
-0.143972
-0.151997
-0.159495
-0.166431
-0.172559
-0.178114
-0.183072
-0.187379
-0.191053
-0.193986
-0.196349
-0.198148
-0.199376
-0.200065
-0.200214
-0.199897
-0.199125
-0.197884
-0.196435
0.031038
0.0253086
0.0197466
0.0138088
0.00762431
0.00113485
-0.00585694
-0.0129832
-0.020689
-0.0286827
-0.0369161
-0.0455734
-0.0545233
-0.0634966
-0.0726996
-0.0820889
-0.09131
-0.100417
-0.109436
-0.118264
-0.126671
-0.134613
-0.142194
-0.149296
-0.155887
-0.161732
-0.167045
-0.171801
-0.175945
-0.179493
-0.182339
-0.184641
-0.186399
-0.187609
-0.188297
-0.18846
-0.188168
-0.18743
-0.186233
-0.184838
0.0292356
0.023823
0.0185649
0.0129616
0.00713048
0.00101966
-0.00554908
-0.0122407
-0.0194584
-0.0269384
-0.0346362
-0.0427184
-0.0510687
-0.0594438
-0.0680295
-0.0767896
-0.085404
-0.0939204
-0.102362
-0.110637
-0.118537
-0.126016
-0.133169
-0.139882
-0.14613
-0.15169
-0.156754
-0.161297
-0.165265
-0.168672
-0.171414
-0.173637
-0.175338
-0.176511
-0.177181
-0.177343
-0.17706
-0.176342
-0.175176
-0.173819
0.0275778
0.0224587
0.017482
0.0121875
0.0066816
0.000918458
-0.00526281
-0.0115573
-0.0183302
-0.0253422
-0.0325528
-0.0401122
-0.0479165
-0.0557459
-0.0637677
-0.0719509
-0.0800067
-0.087977
-0.0958817
-0.103638
-0.111059
-0.118098
-0.124839
-0.131176
-0.137087
-0.142362
-0.147175
-0.151499
-0.155282
-0.158537
-0.161163
-0.163294
-0.164925
-0.166048
-0.166686
-0.166833
-0.166547
-0.165836
-0.164689
-0.16336
0.0260501
0.0212038
0.0164885
0.0114801
0.00627488
0.000832355
-0.00499259
-0.0109226
-0.0172881
-0.0238722
-0.0306376
-0.0377196
-0.0450252
-0.0523549
-0.0598597
-0.067513
-0.0750535
-0.0825181
-0.0899237
-0.0971962
-0.104165
-0.110786
-0.117133
-0.123108
-0.12869
-0.133684
-0.138246
-0.142349
-0.145943
-0.149039
-0.151541
-0.15357
-0.15512
-0.156183
-0.156778
-0.1569
-0.156601
-0.155889
-0.154752
-0.15344
0.0246399
0.020048
0.0155764
0.0108339
0.00590757
0.000761693
-0.00473419
-0.0103282
-0.0163193
-0.0225104
-0.0288673
-0.0355118
-0.04236
-0.0492311
-0.0562606
-0.0634258
-0.0704902
-0.0774862
-0.0844277
-0.0912478
-0.0977914
-0.104017
-0.109989
-0.115617
-0.120881
-0.125601
-0.129915
-0.133798
-0.137201
-0.140134
-0.142507
-0.144427
-0.145889
-0.146883
-0.147428
-0.147517
-0.147197
-0.146476
-0.145343
-0.144041
0.0233358
0.0189819
0.0147381
0.0102434
0.00557674
0.000706598
-0.00448444
-0.00976762
-0.0154133
-0.0212422
-0.0272228
-0.0334647
-0.0398922
-0.0463413
-0.0529332
-0.0596478
-0.0662714
-0.0728322
-0.0793418
-0.0857393
-0.0918839
-0.0977355
-0.103352
-0.108648
-0.113607
-0.118059
-0.122132
-0.125797
-0.129011
-0.13178
-0.134019
-0.135827
-0.137196
-0.138117
-0.138606
-0.138656
-0.13831
-0.137576
-0.136441
-0.135144
0.022128
0.0179972
0.0139668
0.00970388
0.00527956
0.000666377
-0.00424127
-0.00923591
-0.0145617
-0.0200555
-0.0256886
-0.0315592
-0.0375983
-0.0436575
-0.0498456
-0.0561438
-0.0623583
-0.0685145
-0.0746219
-0.0806247
-0.0863948
-0.0918941
-0.0971731
-0.102154
-0.106819
-0.111015
-0.114852
-0.118305
-0.121332
-0.123938
-0.126043
-0.127737
-0.12901
-0.129855
-0.130285
-0.130292
-0.129917
-0.129166
-0.128027
-0.126731
0.0210077
0.0170862
0.0132564
0.00921067
0.00501336
0.000640445
-0.00400322
-0.00872928
-0.013758
-0.0189409
-0.024252
-0.0297789
-0.0354588
-0.0411569
-0.0469707
-0.0528831
-0.0587181
-0.0644981
-0.0702306
-0.0758646
-0.0812833
-0.0864501
-0.0914112
-0.0960916
-0.100478
-0.104425
-0.108036
-0.111283
-0.114127
-0.116573
-0.118545
-0.120124
-0.121302
-0.122068
-0.122438
-0.122401
-0.121996
-0.121225
-0.120082
-0.118785
0.0199669
0.0162425
0.0126013
0.00875977
0.00477564
0.000627774
-0.00376927
-0.00824446
-0.0129965
-0.0178904
-0.022902
-0.02811
-0.0334568
-0.0388199
-0.0442864
-0.0498404
-0.0553227
-0.0607526
-0.0661353
-0.0714245
-0.0765131
-0.081368
-0.0860274
-0.0904245
-0.0945444
-0.098255
-0.101647
-0.104696
-0.107362
-0.109652
-0.111494
-0.11296
-0.114042
-0.114731
-0.11504
-0.114959
-0.114522
-0.113734
-0.112586
-0.11129
0.0189986
0.01546
0.0119969
0.00834754
0.00456393
0.000627375
-0.00353885
-0.00777924
-0.012273
-0.0168974
-0.0216301
-0.0265413
-0.0315783
-0.0366298
-0.0417735
-0.0469944
-0.0521481
-0.0572513
-0.0623074
-0.067274
-0.0720539
-0.0766142
-0.0809903
-0.0851186
-0.0889858
-0.0924705
-0.0956538
-0.0985109
-0.101008
-0.103146
-0.10486
-0.106216
-0.107205
-0.107819
-0.108068
-0.107944
-0.107478
-0.106673
-0.105521
-0.104227
0.0180966
0.0147334
0.0114387
0.00797059
0.00437581
0.000637989
-0.00331152
-0.00733161
-0.0115839
-0.0159564
-0.0204285
-0.025063
-0.0298114
-0.0345723
-0.0394153
-0.0443261
-0.0491733
-0.0539715
-0.0587229
-0.0633879
-0.0678773
-0.0721617
-0.0762702
-0.0801447
-0.0837729
-0.0870427
-0.090026
-0.0927017
-0.0950333
-0.0970259
-0.0986177
-0.0998673
-0.100767
-0.101308
-0.101499
-0.101334
-0.100841
-0.100021
-0.0988701
-0.0975817
0.0172552
0.0140579
0.0109226
0.00762571
0.00420908
0.000658668
-0.00308699
-0.00690004
-0.0109258
-0.0150625
-0.019291
-0.0236669
-0.0281458
-0.0326354
-0.0371976
-0.0418189
-0.0463805
-0.050894
-0.05536
-0.0597426
-0.0639607
-0.0679847
-0.0718413
-0.0754765
-0.0788785
-0.0819442
-0.0847387
-0.0872388
-0.0894151
-0.0912681
-0.0927418
-0.0938898
-0.0947037
-0.0951748
-0.0953123
-0.0951097
-0.0945917
-0.0937619
-0.0926146
-0.0913362
0.0164695
0.0134292
0.010445
0.00730995
0.00406178
0.000688386
-0.00286526
-0.00648331
-0.0102965
-0.014212
-0.0182119
-0.0223458
-0.0265727
-0.0308083
-0.0351081
-0.0394598
-0.043754
-0.0480009
-0.0522007
-0.056319
-0.060281
-0.0640611
-0.0676807
-0.0710904
-0.0742788
-0.0771514
-0.0797652
-0.0821015
-0.0841279
-0.0858482
-0.0872106
-0.0882613
-0.0889934
-0.0893996
-0.0894868
-0.08925
-0.0887116
-0.0878754
-0.0867365
-0.0854734
0.0157348
0.0128435
0.0100025
0.00702078
0.00393216
0.00072615
-0.00264649
-0.00608064
-0.00969384
-0.0134013
-0.0171865
-0.0210936
-0.025084
-0.029082
-0.033137
-0.0372359
-0.0412802
-0.0452781
-0.0492276
-0.0530978
-0.0568211
-0.060371
-0.0637678
-0.0669652
-0.0699521
-0.0726419
-0.0750864
-0.0772645
-0.0791513
-0.0807462
-0.0820014
-0.0829605
-0.0836169
-0.0839614
-0.084003
-0.0837362
-0.0831816
-0.0823435
-0.0812179
-0.0799755
0.0150471
0.0122971
0.00959221
0.00675593
0.00381851
0.000770898
-0.00243071
-0.00569112
-0.00911585
-0.0126275
-0.0162109
-0.0199045
-0.0236737
-0.027449
-0.0312741
-0.0351372
-0.0389473
-0.0427109
-0.0464267
-0.0500648
-0.0535625
-0.056897
-0.0600843
-0.0630818
-0.0658789
-0.0683963
-0.0706792
-0.0727111
-0.0744638
-0.0759398
-0.0770957
-0.077969
-0.0785528
-0.078842
-0.078842
-0.0785494
-0.0779832
-0.0771476
-0.0760403
-0.0748242
0.0144027
0.011787
0.00921154
0.00651321
0.00371919
0.000821817
-0.00221806
-0.00531406
-0.00856091
-0.0118881
-0.015281
-0.0187746
-0.0223359
-0.0259021
-0.0295124
-0.0331537
-0.0367441
-0.0402889
-0.0437846
-0.0472045
-0.0504919
-0.0536233
-0.0566135
-0.059423
-0.0620413
-0.0643961
-0.0665283
-0.0684192
-0.0700477
-0.0714126
-0.0724736
-0.0732662
-0.073785
-0.0740218
-0.0739854
-0.0736714
-0.0730979
-0.0722696
-0.0711851
-0.0700006
0.0137984
0.0113104
0.00885804
0.00629074
0.00363289
0.00087802
-0.00200863
-0.00494889
-0.00802781
-0.0111808
-0.0143947
-0.0176996
-0.021066
-0.0244361
-0.0278436
-0.0312773
-0.0346616
-0.038
-0.0412902
-0.0445059
-0.0475943
-0.0505355
-0.0533405
-0.0559732
-0.0584234
-0.0606252
-0.0626139
-0.0643753
-0.0658849
-0.0671448
-0.0681186
-0.0688367
-0.069293
-0.0694846
-0.0694154
-0.0690843
-0.0685078
-0.0676909
-0.0666336
-0.0654854
0.013231
0.0108645
0.00852952
0.00608681
0.00355833
0.000938779
-0.00180273
-0.00459544
-0.00751546
-0.0105042
-0.0135489
-0.0166767
-0.0198595
-0.0230444
-0.0262622
-0.0295005
-0.0326909
-0.0358365
-0.0389327
-0.0419561
-0.044859
-0.0476206
-0.0502516
-0.052718
-0.0550103
-0.0570679
-0.0589233
-0.06056
-0.0619602
-0.0631225
-0.0640134
-0.0646617
-0.0650636
-0.0652118
-0.0651152
-0.0647708
-0.064195
-0.0633931
-0.0623667
-0.0612583
0.0126978
0.0104471
0.0082239
0.00589978
0.00349435
0.00100332
-0.00160064
-0.00425348
-0.00702329
-0.00985644
-0.0127418
-0.0157023
-0.018712
-0.0217231
-0.0247615
-0.0278165
-0.0308249
-0.0337883
-0.0367031
-0.0395464
-0.0422736
-0.044867
-0.0473344
-0.0496446
-0.0517886
-0.0537108
-0.0554394
-0.0569621
-0.0582578
-0.0593283
-0.0601434
-0.060728
-0.061077
-0.0611889
-0.0610678
-0.0607137
-0.0601419
-0.0593583
-0.0583652
-0.0572998
0.0121962
0.0100558
0.00793929
0.00572808
0.00343974
0.00107091
-0.00140259
-0.00392274
-0.00655017
-0.00923662
-0.0119709
-0.0147736
-0.0176203
-0.0204669
-0.0233372
-0.0262193
-0.0290562
-0.031849
-0.0345925
-0.0372662
-0.0398294
-0.0422641
-0.0445777
-0.0467412
-0.0487456
-0.0505405
-0.0521516
-0.0535646
-0.0547644
-0.0557497
-0.056493
-0.0570179
-0.0573216
-0.0573987
-0.0572572
-0.0568968
-0.0563315
-0.0555684
-0.0546105
-0.0535892
0.0117241
0.00968865
0.00767394
0.00557028
0.00339346
0.00114086
-0.00120879
-0.00360278
-0.00609576
-0.00864295
-0.0112346
-0.0138882
-0.0165808
-0.0192728
-0.0219837
-0.0247035
-0.0273791
-0.0300106
-0.0325937
-0.0351081
-0.0375161
-0.0398021
-0.0419711
-0.0439967
-0.0458702
-0.0475457
-0.0490451
-0.0503578
-0.0514661
-0.0523715
-0.0530493
-0.0535199
-0.0537795
-0.0538275
-0.0536685
-0.0533037
-0.0527473
-0.052006
-0.0510844
-0.0501078
0.0112791
0.00934389
0.00742631
0.00542515
0.00335454
0.00121259
-0.00101923
-0.00329374
-0.00565888
-0.00807454
-0.010531
-0.0130435
-0.0155908
-0.0181362
-0.0206977
-0.023264
-0.0257874
-0.0282677
-0.0306991
-0.0330634
-0.0353265
-0.0374721
-0.0395052
-0.0414012
-0.0431517
-0.0447148
-0.0461107
-0.0473271
-0.0483515
-0.0491828
-0.0497985
-0.0502181
-0.05044
-0.0504601
-0.0502864
-0.0499195
-0.0493731
-0.0486545
-0.0477688
-0.0468359
0.0108596
0.00901985
0.00719497
0.00529152
0.00332216
0.00128571
-0.000834451
-0.002995
-0.00523924
-0.00753003
-0.00985839
-0.0122374
-0.0146473
-0.0170547
-0.0194743
-0.0218963
-0.0242765
-0.0266136
-0.0289028
-0.0311262
-0.0332518
-0.0352658
-0.0371712
-0.0389453
-0.0405803
-0.042038
-0.0433355
-0.044464
-0.0454084
-0.0461701
-0.0467291
-0.0471023
-0.0472871
-0.0472839
-0.0470972
-0.0467296
-0.0461938
-0.0454977
-0.0446469
-0.0437559
0.0104637
0.00871499
0.00697864
0.00516838
0.00329557
0.00135943
-0.000654211
-0.0027067
-0.00483601
-0.00700837
-0.0092153
-0.011468
-0.013748
-0.0160244
-0.0183107
-0.0205963
-0.0228412
-0.0250439
-0.0271985
-0.0292889
-0.031286
-0.0331757
-0.0349609
-0.0366205
-0.038147
-0.0395055
-0.0407119
-0.0417557
-0.0426268
-0.043324
-0.0438291
-0.0441586
-0.0443115
-0.0442852
-0.0440875
-0.0437199
-0.0431949
-0.0425205
-0.0417027
-0.0408502
0.0100898
0.00842798
0.00677615
0.00505477
0.00327398
0.00143366
-0.000478938
-0.00242841
-0.00444858
-0.00650856
-0.00860034
-0.0107334
-0.0128904
-0.0150434
-0.0172031
-0.0193602
-0.0214775
-0.0235528
-0.0255811
-0.0275465
-0.0294218
-0.0311948
-0.032867
-0.034419
-0.0358434
-0.0371089
-0.0382287
-0.0391952
-0.0399961
-0.0406326
-0.0410884
-0.0413777
-0.0414989
-0.0414531
-0.0412449
-0.0408776
-0.040363
-0.0397087
-0.0389215
-0.0381041
0.00973646
0.00815753
0.00658644
0.00494984
0.00325698
0.00150773
-0.000308466
-0.00215995
-0.00407643
-0.00602971
-0.00801222
-0.0100319
-0.0120726
-0.0141083
-0.0161489
-0.0181843
-0.0201809
-0.0221366
-0.0240453
-0.0258927
-0.027654
-0.0293167
-0.0308825
-0.0323332
-0.0336619
-0.0348397
-0.0358791
-0.0367712
-0.0375077
-0.0380876
-0.0384964
-0.0387475
-0.038841
-0.0387754
-0.0385579
-0.0381909
-0.0376854
-0.0370497
-0.0362897
-0.0355029
0.0094024
0.00790253
0.00640855
0.00485296
0.00324374
0.0015816
-0.000143028
-0.00190115
-0.00371905
-0.005571
-0.00744976
-0.00936199
-0.0112924
-0.0132174
-0.0151447
-0.0170655
-0.0189484
-0.0207905
-0.0225869
-0.0243232
-0.0259763
-0.0275356
-0.0290012
-0.0303565
-0.031595
-0.0326906
-0.0336535
-0.0344775
-0.0351523
-0.0356788
-0.0360442
-0.0362601
-0.0363257
-0.0362428
-0.0360159
-0.0356484
-0.0351512
-0.0345311
-0.0337952
-0.0330346
0.00908635
0.0076619
0.00624162
0.00476318
0.003234
0.0016547
1.73917e-05
-0.00165178
-0.00337596
-0.00513162
-0.00691187
-0.00872215
-0.0105481
-0.012368
-0.0141886
-0.0160007
-0.0177759
-0.0195114
-0.0212012
-0.0228326
-0.0243844
-0.0258458
-0.0272169
-0.0284826
-0.0296363
-0.0306543
-0.0315461
-0.0323045
-0.0329224
-0.0333991
-0.0337229
-0.033905
-0.0339459
-0.033845
-0.033609
-0.0332406
-0.0327494
-0.0321432
-0.0314273
-0.030688
0.00878719
0.0074347
0.00608476
0.00468008
0.00322709
0.00172693
0.000172783
-0.00141166
-0.00304671
-0.00471084
-0.00639751
-0.00811103
-0.00983795
-0.0115585
-0.0132777
-0.0149873
-0.0166608
-0.018295
-0.0198847
-0.0214172
-0.0228728
-0.0242422
-0.0255244
-0.0267056
-0.0277794
-0.0287245
-0.0295488
-0.0302468
-0.0308102
-0.0312396
-0.0315248
-0.0316753
-0.0316912
-0.0315742
-0.0313286
-0.030958
-0.0304716
-0.0298758
-0.0291767
-0.0284539
0.00850386
0.00721999
0.00593728
0.00460291
0.00322276
0.00179805
0.000323115
-0.00118059
-0.00273086
-0.00430798
-0.00590571
-0.00752742
-0.00916052
-0.0107865
-0.0124101
-0.0140224
-0.0155997
-0.0171386
-0.0186332
-0.0200722
-0.0214379
-0.0227201
-0.0239186
-0.02502
-0.0260188
-0.0268951
-0.0276564
-0.0282963
-0.0288092
-0.0291942
-0.0294422
-0.0295624
-0.0295556
-0.0294217
-0.0291665
-0.0287928
-0.028309
-0.0277218
-0.0270354
-0.0263247
0.0082354
0.00701701
0.00579854
0.00453128
0.00322055
0.00186785
0.000468387
-0.000958394
-0.00242799
-0.00392238
-0.00543557
-0.00697011
-0.0085141
-0.0100508
-0.0115834
-0.0131039
-0.0145902
-0.0160386
-0.0174438
-0.0187948
-0.0200747
-0.0212751
-0.0223946
-0.023421
-0.024349
-0.0251606
-0.0258618
-0.0264483
-0.0269125
-0.0272554
-0.0274688
-0.0275605
-0.0275306
-0.0273811
-0.0271157
-0.0267378
-0.0262552
-0.0256733
-0.0249971
-0.0242943
0.00798091
0.00682504
0.00566782
0.00446462
0.0032202
0.00193614
0.000608586
-0.000744885
-0.00213773
-0.00355341
-0.00498623
-0.006438
-0.00789754
-0.00934925
-0.010796
-0.0122294
-0.0136295
-0.0149927
-0.016313
-0.0175807
-0.0187803
-0.0199032
-0.0209482
-0.0219039
-0.0227652
-0.0235156
-0.0241609
-0.0246956
-0.0251149
-0.0254182
-0.0255981
-0.0256622
-0.0256113
-0.0254454
-0.0251698
-0.0247868
-0.0243035
-0.0237255
-0.0230558
-0.0223577
0.00773961
0.00664324
0.00554461
0.00440254
0.00322126
0.00200278
0.000743745
-0.000539864
-0.00185967
-0.00320048
-0.00455687
-0.00593001
-0.00730938
-0.00868078
-0.0100457
-0.011397
-0.0127156
-0.0139976
-0.0152382
-0.0164274
-0.0175506
-0.0186006
-0.0195753
-0.0204644
-0.0212627
-0.0219556
-0.0225475
-0.0230345
-0.0234105
-0.0236761
-0.0238248
-0.0238628
-0.0237906
-0.0236095
-0.0233231
-0.0229342
-0.0224492
-0.0218726
-0.0212076
-0.0205111
0.00751063
0.00647109
0.00542831
0.00434448
0.00322367
0.00206763
0.000873878
-0.000343143
-0.00159343
-0.00286303
-0.00414676
-0.00544524
-0.00674859
-0.00804343
-0.00933133
-0.0106045
-0.0118458
-0.0130516
-0.0142163
-0.0153311
-0.0163829
-0.0173637
-0.0182721
-0.0190983
-0.0198373
-0.0204759
-0.021018
-0.0214589
-0.0217948
-0.022025
-0.0221434
-0.0221564
-0.0220645
-0.0218678
-0.0215708
-0.0211754
-0.0206874
-0.0201112
-0.0194485
-0.0187519
0.00729332
0.00630787
0.00531844
0.00429031
0.00322696
0.00213058
0.000999026
-0.000154542
-0.00133867
-0.00254054
-0.00375518
-0.00498273
-0.00621384
-0.0074364
-0.00865079
-0.00985016
-0.0110184
-0.0121517
-0.0132451
-0.0142899
-0.0152735
-0.0161893
-0.0170351
-0.0178019
-0.0184852
-0.0190725
-0.0195671
-0.0199657
-0.0202629
-0.0204594
-0.0205498
-0.020539
-0.0204274
-0.0202163
-0.0199084
-0.0195062
-0.0190147
-0.0184374
-0.0177761
-0.0170778
0.00708693
0.00615312
0.00521457
0.00423943
0.00323111
0.00219151
0.00111921
2.61117e-05
-0.00109505
-0.00223249
-0.00338144
-0.00454163
-0.00570424
-0.00685791
-0.00800301
-0.00913231
-0.0102313
-0.0112963
-0.0123219
-0.0133003
-0.0142201
-0.0150743
-0.0158611
-0.016572
-0.0172025
-0.0177415
-0.0181919
-0.0185495
-0.0188111
-0.0189759
-0.0190391
-0.0190057
-0.018876
-0.0186503
-0.0183321
-0.017923
-0.0174274
-0.016849
-0.0161878
-0.0154874
0.00689095
0.0060062
0.00511623
0.00419177
0.00323571
0.00225035
0.00123448
0.000198993
-0.000862248
-0.00193841
-0.00302491
-0.00412109
-0.00521865
-0.00630722
-0.0073862
-0.00844934
-0.00948285
-0.0104829
-0.0114448
-0.0123606
-0.0132197
-0.014016
-0.014747
-0.0154052
-0.0159861
-0.0164796
-0.0168878
-0.0172078
-0.017435
-0.0175698
-0.017608
-0.0175532
-0.0174058
-0.0171668
-0.0168384
-0.0164225
-0.0159232
-0.0153429
-0.0146823
-0.0139796
0.00670461
0.00586673
0.00502304
0.00414675
0.00324074
0.00230698
0.00134488
0.000364268
-0.000639957
-0.00165782
-0.00268494
-0.00372035
-0.00475623
-0.00578272
-0.00679944
-0.00779968
-0.00877114
-0.00971004
-0.0106114
-0.011468
-0.0122701
-0.0130115
-0.01369
-0.0142985
-0.0148327
-0.0152833
-0.0156522
-0.0159359
-0.0161315
-0.0162383
-0.0162524
-0.0161775
-0.016014
-0.015762
-0.0154243
-0.0150022
-0.014499
-0.0139178
-0.0132574
-0.0125534
0.00652749
0.00573411
0.00493457
0.00410436
0.00324584
0.00236136
0.00145044
0.000522105
-0.000427875
-0.00139031
-0.00236097
-0.00333865
-0.0043159
-0.00528379
-0.0062411
-0.00718199
-0.00809479
-0.00897555
-0.00981995
-0.0106207
-0.0113687
-0.0120585
-0.0126875
-0.0132491
-0.0137394
-0.0141497
-0.0144813
-0.0147317
-0.014897
-0.0149774
-0.0149694
-0.0148758
-0.0146968
-0.0144333
-0.0140869
-0.0136592
-0.0131532
-0.012571
-0.0119123
-0.0112078
0.00635893
0.00560798
0.00485055
0.00406409
0.00325103
0.00241341
0.00155122
0.000672661
-0.000225719
-0.00113543
-0.00205244
-0.00297529
-0.00389697
-0.00480903
-0.00571038
-0.00659491
-0.0074521
-0.00827819
-0.00906842
-0.00981642
-0.0105137
-0.0111546
-0.011737
-0.0122546
-0.0127034
-0.0130758
-0.0133727
-0.0135912
-0.0137288
-0.0137847
-0.0137557
-0.0136447
-0.013452
-0.0131775
-0.0128236
-0.0123913
-0.0118831
-0.0113016
-0.0106448
-0.009942
0.00619852
0.00548792
0.00477057
0.00402592
0.00325599
0.00246308
0.00164728
0.000816099
-3.32102e-05
-0.000892816
-0.00175883
-0.00262959
-0.00349851
-0.00435784
-0.00520585
-0.0060372
-0.00684182
-0.00761591
-0.00835533
-0.00905356
-0.00970261
-0.0102978
-0.0108362
-0.0113123
-0.0117223
-0.0120591
-0.0123232
-0.0125126
-0.0126238
-0.0126568
-0.0126087
-0.0124819
-0.0122761
-0.0119924
-0.011632
-0.0111961
-0.0106872
-0.0101069
-0.00945436
-0.00875473
0.00604572
0.00537353
0.00469439
0.00398943
0.00326073
0.00251032
0.00173866
0.000952575
0.000149921
-0.000662061
-0.00147962
-0.00230095
-0.00311986
-0.00392896
-0.00472678
-0.0055076
-0.00626245
-0.00698766
-0.00767875
-0.00832994
-0.00893398
-0.00948572
-0.0099829
-0.01042
-0.0107935
-0.0110969
-0.0113308
-0.0114923
-0.0115794
-0.0115914
-0.0115255
-0.0113841
-0.0111674
-0.0108752
-0.0105096
-0.0100715
-0.00956285
-0.00898589
-0.00833843
-0.00764462
0.00590014
0.00526443
0.00462164
0.00395459
0.00326498
0.0025551
0.00182542
0.00108224
0.000323938
-0.000442793
-0.00121433
-0.00198875
-0.00276019
-0.00352191
-0.00427184
-0.00500502
-0.00571285
-0.00639161
-0.00703739
-0.00764434
-0.00820555
-0.00871665
-0.00917503
-0.00957555
-0.00991491
-0.0101871
-0.0103924
-0.0105287
-0.0105931
-0.0105856
-0.0105039
-0.0103495
-0.0101225
-0.0098238
-0.00945422
-0.00901511
-0.00850855
-0.00793573
-0.00729595
-0.00660989
0.00576127
0.00516028
0.00455212
0.003921
0.00326876
0.00259737
0.00190762
0.00120525
0.000489087
-0.000234658
-0.0009625
-0.00169243
-0.0024189
-0.00313551
-0.0038404
-0.00452838
-0.0051917
-0.00582684
-0.00642956
-0.00699475
-0.00751598
-0.00798872
-0.00841061
-0.00877687
-0.00908427
-0.00932735
-0.00950628
-0.00961856
-0.00966255
-0.00963737
-0.00954095
-0.00937503
-0.00913993
-0.00883542
-0.00846347
-0.00802488
-0.00752146
-0.00695525
-0.00632409
-0.00564851
0.00562878
0.00506074
0.00448549
0.00388868
0.00327182
0.00263712
0.00198533
0.00132175
0.000645613
-3.73169e-05
-0.000723689
-0.00141141
-0.00209524
-0.00276931
-0.00343128
-0.00407667
-0.00469798
-0.00529169
-0.00585413
-0.00638003
-0.00686331
-0.00730017
-0.00768785
-0.00802203
-0.00829959
-0.00851558
-0.0086698
-0.00876056
-0.0087853
-0.00874399
-0.00863478
-0.0084589
-0.00821639
-0.00790815
-0.00753502
-0.00709832
-0.00659997
-0.00604116
-0.0054213
-0.00475806
0.0055022
0.0049655
0.00442157
0.00385727
0.0032742
0.00267431
0.00205858
0.00143187
0.000793748
0.000149559
-0.000497464
-0.00114518
-0.00178866
-0.00242223
-0.00304391
-0.00364888
-0.00423049