/*--------------------------------*- C++ -*----------------------------------*\
| =========                 |                                                 |
| \\      /  F ield         | OpenFOAM: The Open Source CFD Toolbox           |
|  \\    /   O peration     | Version:  3.0.1                                 |
|   \\  /    A nd           | Web:      www.OpenFOAM.org                      |
|    \\/     M anipulation  |                                                 |
\*---------------------------------------------------------------------------*/
FoamFile
{
    version     2.0;
    format      ascii;
    class       surfaceScalarField;
    location    "300";
    object      phi;
}
// * * * * * * * * * * * * * * * * * * * * * * * * * * * * * * * * * * * * * //

dimensions      [0 3 -1 0 0 0 0];

internalField   nonuniform List<scalar> 
115520
(
0.0134119
-0.0018637
-0.0115481
0.0145092
-0.00109719
0.0146491
-0.000139947
0.0142704
0.000378797
0.0136333
0.000637173
0.0128954
0.00073789
0.0122362
0.00065924
0.0116228
0.000613496
0.0111549
0.000467951
0.0108347
0.000320262
0.0106166
0.000218119
0.0105103
0.00010634
0.0105178
-7.41753e-06
0.0105833
-6.5441e-05
0.0106875
-0.000104114
0.0108317
-0.000144176
0.0110041
-0.000172352
0.0111857
-0.000181622
0.0113678
-0.00018207
0.0115514
-0.000183534
0.0117396
-0.000188187
0.0119222
-0.000182633
0.0120953
-0.000173009
0.0122557
-0.000160426
0.0124131
-0.000157292
0.0125621
-0.000149068
0.0127004
-0.000138229
0.0128262
-0.000125799
0.0129382
-0.000111978
0.0130438
-0.000105546
0.0131387
-9.48362e-05
0.0132217
-8.29722e-05
0.0132923
-7.06338e-05
0.0133503
-5.79682e-05
0.0133853
-3.49285e-05
0.0133692
1.60769e-05
0.0133272
4.20084e-05
0.013287
4.02048e-05
0.013278
9.06427e-06
-4.43144e-05
0.0133223
0.00870953
-0.00299959
-0.00757364
0.00972405
-0.00211168
0.0106721
-0.00108797
0.0115104
-0.000459464
0.0121923
-4.46205e-05
0.0126884
0.00024178
0.0130332
0.000314476
0.0132226
0.000424077
0.0133292
0.000361421
0.0133819
0.000267603
0.0133778
0.00022228
0.0133629
0.000121195
0.0133771
-2.15738e-05
0.0133933
-8.1632e-05
0.0134193
-0.000130011
0.0134845
-0.000209357
0.0135743
-0.000262095
0.0136736
-0.000280955
0.0137805
-0.000288965
0.0139051
-0.000308123
0.0140442
-0.000327178
0.014183
-0.000321452
0.0143196
-0.000309547
0.0144514
-0.000292266
0.0145925
-0.000298369
0.0147277
-0.000284197
0.0148548
-0.000265381
0.0149727
-0.00024368
0.0150801
-0.0002193
0.0151872
-0.000212628
0.0152835
-0.000191142
0.0153682
-0.000167645
0.0154404
-0.00014276
0.0154989
-0.000116485
0.0155471
-8.31145e-05
0.015581
-1.7774e-05
0.0156048
1.8197e-05
0.0156245
2.05342e-05
0.0156464
-1.28309e-05
-8.29173e-05
0.015685
0.00810208
-0.0040381
-0.00706356
0.00904855
-0.00305813
0.00992077
-0.00196017
0.0106688
-0.00120743
0.0113297
-0.00070557
0.011908
-0.00033647
0.0123827
-0.000160185
0.0127837
2.30882e-05
0.0130994
4.57417e-05
0.0133491
1.79698e-05
0.0135424
2.89457e-05
0.0136974
-3.37781e-05
0.0138382
-0.000162352
0.013961
-0.000204393
0.0140748
-0.00024377
0.0142028
-0.000337387
0.0143398
-0.000399029
0.0144783
-0.000419515
0.0146191
-0.000429658
0.01477
-0.000459076
0.0149285
-0.000485681
0.0150847
-0.000477571
0.0152375
-0.000462371
0.0153857
-0.000440424
0.0155382
-0.000450868
0.0156835
-0.000429486
0.0158204
-0.000402248
0.0159482
-0.000371491
0.0160662
-0.000337251
0.0161804
-0.000326836
0.0162831
-0.00029383
0.0163738
-0.000258306
0.016452
-0.000220931
0.0165171
-0.000181547
0.0165709
-0.00013696
0.0166106
-5.74206e-05
0.0166368
-8.03625e-06
0.0166539
3.45312e-06
0.016663
-2.19318e-05
-8.38275e-05
0.016664
0.00736352
-0.00492337
-0.00647826
0.00822848
-0.00392307
0.00907561
-0.00280728
0.00985182
-0.00198362
0.0105621
-0.00141579
0.011202
-0.000976381
0.0117575
-0.000715691
0.0122557
-0.000475051
0.0126837
-0.000382239
0.0130541
-0.00035242
0.0133746
-0.000291623
0.013652
-0.000311151
0.0139006
-0.000410878
0.0141218
-0.000425559
0.014321
-0.000443021
0.0145151
-0.000531414
0.0147044
-0.000588333
0.0148864
-0.000601523
0.0150631
-0.000606349
0.0152424
-0.000638351
0.0154237
-0.000666934
0.0155998
-0.000653711
0.0157704
-0.000632968
0.0159347
-0.000604739
0.0161008
-0.000616919
0.0162589
-0.000587584
0.0164079
-0.000551199
0.0165471
-0.000510667
0.0166758
-0.000465981
0.0167998
-0.000450837
0.0169121
-0.00040604
0.0170119
-0.000358166
0.017099
-0.000307967
0.0171727
-0.000255292
0.0172357
-0.000199955
0.017286
-0.000107676
0.0173227
-4.46911e-05
0.0173473
-2.11979e-05
0.017361
-3.55737e-05
-8.6055e-05
0.0173632
0.00697714
-0.00573868
-0.00616185
0.00778839
-0.00473431
0.00860367
-0.00362256
0.00938067
-0.0027606
0.0101181
-0.0021532
0.0108056
-0.00166389
0.0114191
-0.00132921
0.0119864
-0.00104235
0.0124872
-0.000882937
0.0129317
-0.000796988
0.0133304
-0.000690287
0.0136838
-0.000664513
0.0140005
-0.00072755
0.0142871
-0.000712217
0.0145477
-0.000703557
0.0147929
-0.000776647
0.0150259
-0.000821264
0.0152464
-0.000822019
0.0154567
-0.000816678
0.0156635
-0.000845143
0.0158673
-0.000870727
0.0160634
-0.000849798
0.0162518
-0.000821362
0.0164323
-0.000785197
0.0166113
-0.000795892
0.0167812
-0.00075746
0.016941
-0.000710997
0.0170902
-0.000659922
0.0172285
-0.000604203
0.0173601
-0.000582492
0.0174794
-0.000525316
0.0175858
-0.000464546
0.017679
-0.000401115
0.0177586
-0.000334907
0.0178268
-0.000268117
0.017882
-0.000162864
0.017923
-8.56926e-05
0.0179502
-4.83829e-05
0.0179635
-4.89434e-05
-8.5021e-05
0.0179625
0.00670158
-0.00651084
-0.00592943
0.00747673
-0.00550946
0.00826315
-0.00440898
0.00902968
-0.00352713
0.00977553
-0.00289904
0.0104903
-0.00237862
0.0111465
-0.00198545
0.0117682
-0.00166406
0.0123302
-0.00144494
0.0128396
-0.00130633
0.0133063
-0.001157
0.0137268
-0.00108504
0.0141057
-0.00110636
0.0144521
-0.00105867
0.014769
-0.00102042
0.0150629
-0.00107055
0.0153384
-0.00109675
0.015597
-0.0010806
0.015841
-0.00106066
0.0160759
-0.00108007
0.0163033
-0.00109807
0.0165202
-0.00106671
0.016727
-0.0010282
0.0169239
-0.000982034
0.0171163
-0.000988309
0.0172983
-0.000939439
0.0174691
-0.000881781
0.0176283
-0.000819146
0.0177756
-0.00075147
0.0179148
-0.000721731
0.018041
-0.000651497
0.0181537
-0.000577204
0.0182525
-0.000499945
0.0183373
-0.000419643
0.0184098
-0.00034067
0.0184689
-0.00022192
0.0185132
-0.000129961
0.0185426
-7.78503e-05
0.0185572
-6.3471e-05
-8.42333e-05
0.0185564
0.00651808
-0.00726109
-0.00576784
0.00727286
-0.00626424
0.00803983
-0.00517595
0.00879535
-0.00428265
0.00954046
-0.00364416
0.0102672
-0.00310538
0.0109494
-0.00266762
0.0116082
-0.00232284
0.0122164
-0.00205316
0.0127779
-0.0018678
0.0133017
-0.00168079
0.0137808
-0.00156414
0.0142158
-0.00154137
0.0146176
-0.00146043
0.0149877
-0.00139056
0.0153291
-0.00141192
0.0156472
-0.00141484
0.0159447
-0.00137811
0.0162238
-0.00133975
0.0164888
-0.00134506
0.0167418
-0.00135108
0.0169816
-0.00130652
0.0172088
-0.0012554
0.0174238
-0.00119699
0.0176312
-0.0011957
0.0178266
-0.0011348
0.0180094
-0.0010646
0.0181794
-0.000989174
0.0183364
-0.000908431
0.0184837
-0.000868991
0.018617
-0.000784832
0.018736
-0.000696215
0.0188404
-0.00060437
0.0189301
-0.000509249
0.0190065
-0.000417126
0.0190687
-0.000284085
0.0191153
-0.000176572
0.0191462
-0.000108723
0.0191611
-7.83615e-05
-8.28259e-05
0.0191597
0.00639416
-0.00800252
-0.00565275
0.00714012
-0.0070102
0.0078971
-0.00593294
0.00864637
-0.00503191
0.00939006
-0.00438785
0.0101226
-0.00383796
0.010821
-0.00336595
0.0115042
-0.00300606
0.0121459
-0.00269483
0.0127476
-0.0024695
0.0133173
-0.00225052
0.0138458
-0.00209262
0.0143304
-0.00202601
0.0147824
-0.00191244
0.0152023
-0.00181037
0.0155895
-0.00179912
0.0159498
-0.00177521
0.0162868
-0.00171507
0.0166022
-0.00165515
0.0168991
-0.00164195
0.0171799
-0.00163192
0.0174449
-0.00157143
0.0176946
-0.00150516
0.0179298
-0.00143215
0.0181541
-0.00142005
0.0183647
-0.00134534
0.0185611
-0.00126104
0.0187434
-0.0011714
0.0189112
-0.00107628
0.0190676
-0.00102534
0.019209
-0.000926228
0.0193351
-0.000822321
0.0194457
-0.000714964
0.0195406
-0.000604127
0.0196212
-0.000497774
0.0196867
-0.000349526
0.0197357
-0.000225619
0.0197681
-0.000141133
0.0197837
-9.3892e-05
-8.12316e-05
0.0197821
0.00631373
-0.00874428
-0.00557199
0.0070594
-0.00775587
0.00781436
-0.00668791
0.00856311
-0.00578067
0.00930822
-0.00513296
0.0100459
-0.00457565
0.0107563
-0.00407636
0.0114569
-0.00370662
0.0121233
-0.00336129
0.012756
-0.00310222
0.0133621
-0.00285661
0.0139312
-0.00266173
0.0144585
-0.00255327
0.0149548
-0.00240873
0.0154196
-0.00227515
0.0158497
-0.00222924
0.0162508
-0.00217631
0.0166266
-0.00209084
0.0169784
-0.00200701
0.0173082
-0.00197167
0.0176183
-0.00194205
0.01791
-0.00186314
0.0181841
-0.00177928
0.0184413
-0.00168935
0.0186845
-0.00166324
0.018912
-0.00157284
0.0191237
-0.00147275
0.0193197
-0.00136734
0.0194998
-0.00125637
0.0196664
-0.00119201
0.019817
-0.00107676
0.0199511
-0.000956451
0.0200687
-0.000832515
0.0201695
-0.000704929
0.0202549
-0.000583144
0.020324
-0.000418663
0.0203758
-0.000277431
0.02041
-0.000175356
0.0204264
-0.000110287
-7.96098e-05
0.0204248
0.00626601
-0.00949294
-0.00551737
0.00701775
-0.00850762
0.00777702
-0.00744718
0.00853058
-0.00653423
0.009281
-0.00588339
0.0100256
-0.00532029
0.0107475
-0.00479822
0.0114625
-0.00442161
0.0121489
-0.00404773
0.0128067
-0.00375997
0.0134421
-0.00349209
0.0140448
-0.0032644
0.0146084
-0.0031169
0.0151433
-0.00294354
0.015648
-0.00277989
0.0161175
-0.00269872
0.0165568
-0.00261565
0.0169697
-0.00250376
0.0173572
-0.00239445
0.0177197
-0.00233418
0.0180597
-0.00228206
0.0183791
-0.00218256
0.0186788
-0.00207894
0.0189594
-0.00196991
0.0192229
-0.00192676
0.0194688
-0.00181876
0.0196972
-0.00170117
0.0199082
-0.00157834
0.0201019
-0.00144998
0.02028
-0.0013702
0.0204408
-0.00123751
0.0205839
-0.00109957
0.0207093
-0.000957876
0.0208168
-0.000812401
0.0209075
-0.000673887
0.0209809
-0.000492056
0.021036
-0.000332487
0.0210724
-0.000211802
0.02109
-0.000127904
-7.82415e-05
0.0210887
0.00624388
-0.0102535
-0.00548338
0.00700664
-0.00927037
0.00777527
-0.00821582
0.00853819
-0.00729715
0.0092978
-0.00664301
0.0100521
-0.00607462
0.0107866
-0.00553266
0.0115156
-0.00515061
0.01222
-0.00475212
0.0128994
-0.00443942
0.0135599
-0.00415253
0.0141911
-0.00389565
0.0147863
-0.00371205
0.0153548
-0.00351205
0.0158949
-0.00332002
0.0164001
-0.00320393
0.0168749
-0.00309043
0.0173228
-0.00295165
0.0177443
-0.00281592
0.0181388
-0.00272872
0.0185086
-0.00265182
0.0188559
-0.00252995
0.0191817
-0.00240466
0.0194864
-0.00227461
0.0197712
-0.00221162
0.0200367
-0.00208422
0.0202829
-0.0019474
0.0205101
-0.00180551
0.0207183
-0.00165817
0.020909
-0.00156095
0.021081
-0.00140945
0.021234
-0.00125257
0.021368
-0.00109185
0.0214828
-0.000927258
0.0215796
-0.000770646
0.0216578
-0.000570267
0.0217166
-0.000391271
0.0217557
-0.000250887
0.0217749
-0.000147088
-7.74011e-05
0.021774
0.00624247
-0.0110298
-0.00546617
0.00702017
-0.0100481
0.00780227
-0.00899792
0.00857843
-0.00807332
0.00935077
-0.00741535
0.0101177
-0.0068416
0.0108667
-0.00628157
0.0116106
-0.00589453
0.0123326
-0.00547412
0.0130323
-0.00513917
0.0137153
-0.00483549
0.0143719
-0.00455231
0.0149952
-0.00433532
0.0155937
-0.00411059
0.0161656
-0.00389187
0.0167033
-0.00374169
0.0172109
-0.00359798
0.0176915
-0.00343225
0.0181452
-0.00326962
0.0185706
-0.00315412
0.0189695
-0.00305072
0.0193446
-0.00290503
0.0196964
-0.00275648
0.0200255
-0.00260372
0.0203323
-0.00251843
0.020618
-0.0023699
0.0208828
-0.00221222
0.021127
-0.00204964
0.0213506
-0.00188175
0.0215547
-0.0017651
0.0217387
-0.00159338
0.0219023
-0.0014162
0.0220456
-0.00123513
0.0221684
-0.00105013
0.0222718
-0.000873994
0.0223553
-0.000653806
0.0224183
-0.000454225
0.0224604
-0.00029299
0.0224815
-0.000168152
-7.73254e-05
0.0224814
0.0062583
-0.0118251
-0.00546298
0.00705423
-0.010844
0.00785321
-0.0097969
0.00864591
-0.00886602
0.00943414
-0.00820359
0.0102166
-0.00762407
0.0109821
-0.00704709
0.0117425
-0.00665493
0.0124828
-0.00621439
0.0132026
-0.00585901
0.0139071
-0.00553996
0.0145874
-0.00523264
0.0152366
-0.00498455
0.0158627
-0.00473664
0.0164635
-0.00449269
0.0170313
-0.00430947
0.0175693
-0.00413602
0.0180806
-0.00394349
0.0185647
-0.00375377
0.0190197
-0.00360909
0.0194469
-0.00347792
0.0198491
-0.00330726
0.0202268
-0.00313413
0.0205803
-0.0029572
0.0209093
-0.00284746
0.0212156
-0.00267621
0.0214995
-0.00249611
0.0217611
-0.0023113
0.0220007
-0.00212131
0.0222189
-0.0019833
0.0224155
-0.00178993
0.0225903
-0.00159106
0.0227435
-0.00138827
0.0228749
-0.00118153
0.0229853
-0.000984409
0.0230746
-0.000743099
0.0231421
-0.000521719
0.0231875
-0.000338425
0.0232107
-0.000191353
-7.82089e-05
0.0232116
0.0062889
-0.0126422
-0.0054718
0.00710585
-0.011661
0.00792464
-0.0106157
0.00873674
-0.00967812
0.00954367
-0.00901052
0.0103443
-0.00842466
0.0111286
-0.00783141
0.0119073
-0.00743363
0.012667
-0.00697411
0.0134075
-0.00659948
0.0141334
-0.00626587
0.0148367
-0.00593595
0.0155107
-0.00565859
0.0161627
-0.00538866
0.0167907
-0.00512064
0.0173866
-0.00490543
0.0179534
-0.00470277
0.0184936
-0.00448367
0.0190066
-0.00426682
0.0194899
-0.00409239
0.0199445
-0.00393253
0.0203732
-0.00373597
0.0207762
-0.00353714
0.0211538
-0.00333479
0.0215051
-0.00319874
0.0218322
-0.00300331
0.0221354
-0.00279933
0.022415
-0.0025908
0.0226709
-0.00237723
0.0229036
-0.00221603
0.0231132
-0.00199956
0.0232998
-0.00177761
0.0234632
-0.00155172
0.0236036
-0.00132186
0.0237214
-0.00110227
0.0238168
-0.000838489
0.0238891
-0.000594047
0.0239382
-0.000387435
0.0239637
-0.000216883
-8.01855e-05
0.0239657
0.00633247
-0.0134835
-0.00549115
0.0071729
-0.0125014
0.00801407
-0.0114569
0.00884811
-0.0105122
0.00967626
-0.00983867
0.0104974
-0.00924581
0.0113026
-0.00863665
0.0121016
-0.00823256
0.0128822
-0.00775474
0.0136443
-0.00736158
0.0143922
-0.00701373
0.0151185
-0.00666226
0.0158169
-0.00635701
0.0164941
-0.00606585
0.017148
-0.00577459
0.0177709
-0.00552833
0.0183651
-0.00529696
0.0189329
-0.0050515
0.0194737
-0.00480755
0.0199843
-0.004603
0.0204655
-0.00441375
0.02092
-0.00419049
0.0213479
-0.00396501
0.0217493
-0.00373615
0.0221227
-0.00357218
0.0224706
-0.00335123
0.0227933
-0.003122
0.0230908
-0.00288834
0.0233634
-0.00264975
0.0236109
-0.00246359
0.023834
-0.00222262
0.0240325
-0.00197617
0.0242066
-0.00172578
0.0243562
-0.00147143
0.0244818
-0.00122787
0.0245835
-0.000940233
0.0246609
-0.000671424
0.0247137
-0.000440193
0.0247417
-0.000244867
-8.33311e-05
0.0247448
0.00638767
-0.0143513
-0.00551991
0.00725382
-0.0133676
0.00811969
-0.0123227
0.00897797
-0.0113705
0.00982963
-0.0106903
0.0106736
-0.0100898
0.0115018
-0.00946485
0.0123229
-0.00905364
0.013126
-0.00855787
0.013911
-0.00814653
0.0146817
-0.00778445
0.0154315
-0.00741205
0.0161544
-0.00707995
0.0168565
-0.00676799
0.017536
-0.00645402
0.0181851
-0.00617747
0.0188059
-0.00591779
0.0194005
-0.00564611
0.019968
-0.00537503
0.0205051
-0.00514011
0.0210123
-0.00492091
0.0214921
-0.00467027
0.0219444
-0.0044173
0.0223691
-0.00416093
0.0227646
-0.00396764
0.0231333
-0.00371993
0.0234754
-0.00346414
0.0237911
-0.003204
0.0240803
-0.00293902
0.024343
-0.00272623
0.0245797
-0.00245935
0.0247905
-0.00218699
0.0249755
-0.0019107
0.0251345
-0.00163045
0.025268
-0.00136143
0.0253763
-0.00104852
0.0254589
-0.000753997
0.0255155
-0.000496805
0.025546
-0.000275367
-8.76602e-05
0.0255503
0.00645351
-0.0152476
-0.00555726
0.00734746
-0.0142615
0.00824018
-0.0132155
0.00912484
-0.0122551
0.0100021
-0.0115676
0.010871
-0.0109587
0.0117241
-0.010318
0.0125693
-0.00989875
0.0133965
-0.00938515
0.0142057
-0.00895573
0.0150004
-0.00857916
0.0157745
-0.00818615
0.0165225
-0.00782789
0.0172498
-0.0074953
0.0179547
-0.00715888
0.0186298
-0.0068526
0.0192768
-0.00656486
0.0198977
-0.00626697
0.0204914
-0.00596868
0.0210544
-0.00570316
0.021587
-0.00545353
0.0220916
-0.00517486
0.0225679
-0.00489361
0.0230158
-0.00460882
0.0234331
-0.00438497
0.0238225
-0.00410931
0.0241841
-0.00382573
0.024518
-0.00353782
0.024824
-0.0032451
0.0251019
-0.0030041
0.0253525
-0.0027099
0.0255757
-0.00241024
0.0257716
-0.00210663
0.0259403
-0.00179908
0.0260819
-0.00150308
0.0261969
-0.00116346
0.0262847
-0.000841848
0.0263452
-0.000557315
0.0263783
-0.000308388
-9.31314e-05
0.0263837
0.00652927
-0.0161743
-0.00560257
0.00745301
-0.0151853
0.0083746
-0.014137
0.00928764
-0.0131682
0.0101926
-0.0124726
0.0110884
-0.0118545
0.0119683
-0.0111979
0.0128393
-0.0107697
0.0136924
-0.0102382
0.0145273
-0.00979064
0.0153473
-0.00939916
0.0161467
-0.00898558
0.0169204
-0.00860159
0.0176734
-0.0082483
0.018404
-0.00788946
0.0191052
-0.00755381
0.0197785
-0.00723811
0.0204254
-0.0069139
0.0210449
-0.00658822
0.0216336
-0.00629184
0.0221914
-0.00601132
0.0227205
-0.00570398
0.0232206
-0.00539369
0.0236914
-0.00507962
0.0241305
-0.00482406
0.0245405
-0.00451933
0.0249216
-0.00420677
0.0252736
-0.00388982
0.0255965
-0.00356804
0.0258897
-0.0032973
0.0261542
-0.0029744
0.02639
-0.00264603
0.0265971
-0.0023137
0.0267754
-0.0019774
0.0269252
-0.00165291
0.0270469
-0.00128512
0.0271401
-0.000935006
0.0272045
-0.000621714
0.02724
-0.00034388
-9.96526e-05
0.0272465
0.00661444
-0.0171333
-0.00565539
0.00756986
-0.0161407
0.00852227
-0.0150895
0.00946562
-0.0141115
0.0104002
-0.0134072
0.0113249
-0.0127792
0.0122334
-0.0121064
0.013132
-0.0116684
0.0140126
-0.0111188
0.0148747
-0.0106528
0.0157214
-0.0102458
0.0165473
-0.00981154
0.0173477
-0.00940199
0.0181272
-0.00902775
0.018884
-0.00864631
0.0196117
-0.00828147
0.0203113
-0.00793776
0.0209844
-0.00758698
0.0216298
-0.00723362
0.0222441
-0.00690609
0.022827
-0.00659419
0.0233805
-0.00625752
0.0239042
-0.00591743
0.0243978
-0.0055732
0.0248586
-0.00528489
0.0252893
-0.00494997
0.0256897
-0.00460724
0.0260599
-0.00426002
0.0263998
-0.00390788
0.0267084
-0.00360593
0.0269869
-0.00325294
0.0272354
-0.00289446
0.0274536
-0.00253197
0.0276417
-0.00216549
0.0277998
-0.00181097
0.0279282
-0.00141353
0.0280266
-0.00103346
0.0280949
-0.000689952
0.0281328
-0.000381752
-0.000107087
0.0281402
0.00670865
-0.0181266
-0.00571539
0.00769761
-0.0171296
0.00868273
-0.0160746
0.00965827
-0.015087
0.0106243
-0.0143732
0.0115797
-0.0137346
0.0125186
-0.0130453
0.0134467
-0.0125965
0.0143564
-0.0120285
0.0152473
-0.0115437
0.0161221
-0.0111206
0.0169758
-0.0106653
0.017804
-0.0102302
0.0186109
-0.00983457
0.0193947
-0.0094302
0.0201494
-0.00903616
0.0208759
-0.00866425
0.0215755
-0.00828654
0.022247
-0.00790509
0.0228869
-0.00754602
0.0234949
-0.00720221
0.0240729
-0.00683551
0.0246203
-0.00646482
0.0251367
-0.00608956
0.0256192
-0.00576747
0.0260705
-0.00540126
0.0264905
-0.0050272
0.0268789
-0.00464846
0.0272357
-0.00426468
0.0275599
-0.00393007
0.0278525
-0.0035456
0.0281137
-0.00315558
0.0283432
-0.00276149
0.0285411
-0.00236336
0.0287074
-0.00197729
0.0288425
-0.00154868
0.0289462
-0.00113716
0.0290182
-0.000761943
0.0290584
-0.000421875
-0.000115261
0.0290665
0.00681163
-0.0191559
-0.00578232
0.00783599
-0.018154
0.00885568
-0.0170943
0.00986527
-0.0160966
0.0108646
-0.0153725
0.0118526
-0.0147225
0.0128237
-0.0140164
0.013783
-0.0135559
0.0147235
-0.012969
0.0156448
-0.0124649
0.0165491
-0.0120249
0.017432
-0.0115482
0.0182892
-0.0110874
0.0191245
-0.0106698
0.0199363
-0.010242
0.0207188
-0.00981865
0.0214727
-0.0094182
0.0221992
-0.00901305
0.0228972
-0.008603
0.0235631
-0.00821193
0.0241965
-0.00783564
0.0247991
-0.00743814
0.0253703
-0.00703602
0.0259096
-0.00662881
0.026414
-0.00627194
0.0268861
-0.00587333
0.0273257
-0.00546675
0.0277324
-0.00505525
0.0281063
-0.00463852
0.028446
-0.00426982
0.0287529
-0.00385247
0.0290268
-0.00342948
0.0292676
-0.00300231
0.0294753
-0.00257105
0.0296499
-0.00215186
0.0297917
-0.00169053
0.0299006
-0.00124603
0.0299762
-0.000837576
0.0300185
-0.000464095
-0.000123971
0.0300272
0.00692321
-0.0202231
-0.00585601
0.00798482
-0.0192156
0.00904096
-0.0181504
0.0100864
-0.0171421
0.0111209
-0.016407
0.0121433
-0.0157449
0.0131484
-0.0150215
0.0141407
-0.0145482
0.0151137
-0.013942
0.0160668
-0.0134181
0.0170023
-0.0129603
0.0179158
-0.0124617
0.0188032
-0.0119748
0.0196681
-0.0115347
0.0205089
-0.0110828
0.0213201
-0.0106298
0.0221023
-0.0102004
0.0228564
-0.00976718
0.0235813
-0.00932791
0.0242737
-0.00890429
0.0249329
-0.00849485
0.0255605
-0.00806572
0.0261557
-0.00763129
0.0267181
-0.00719117
0.0272447
-0.00679851
0.0277377
-0.00636635
0.028197
-0.00592604
0.0286222
-0.00548052
0.0290132
-0.00502952
0.0293687
-0.00462531
0.0296899
-0.00417365
0.0299766
-0.00371622
0.0302288
-0.00325449
0.0304463
-0.00278856
0.0306291
-0.00233467
0.0307777
-0.00183904
0.0308916
-0.00136001
0.0309708
-0.000916724
0.0310149
-0.000508234
-0.000132984
0.0310239
0.00704333
-0.0213301
-0.00593636
0.00814404
-0.0203163
0.00923849
-0.0192449
0.0103217
-0.0182253
0.0113932
-0.0174785
0.0124518
-0.0168035
0.0134926
-0.0160623
0.0145197
-0.0155753
0.0155268
-0.0149492
0.0165136
-0.0144048
0.0174817
-0.0139285
0.0184272
-0.0134072
0.0193463
-0.0128939
0.020242
-0.0124304
0.021113
-0.0119538
0.0219539
-0.0114707
0.0227652
-0.0110117
0.0235477
-0.0105497
0.0243003
-0.0100805
0.0250197
-0.00962367
0.0257052
-0.00918036
0.0263582
-0.00871871
0.0269779
-0.008251
0.0275637
-0.00777695
0.0281126
-0.00734746
0.0286269
-0.00688058
0.0291061
-0.00640531
0.0295501
-0.00592446
0.0299584
-0.00543784
0.0303298
-0.00499669
0.0306654
-0.00450926
0.0309651
-0.00401589
0.0312287
-0.00351807
0.031456
-0.00301594
0.0316471
-0.00252573
0.0318022
-0.00199418
0.0319212
-0.00147898
0.0320037
-0.000999244
0.0320496
-0.000554097
-0.000142048
0.0320587
0.00717194
-0.0224787
-0.00602332
0.00831365
-0.021458
0.00944831
-0.0203795
0.0105711
-0.0193482
0.0116815
-0.0185889
0.0127782
-0.0179001
0.0138565
-0.0171406
0.0149201
-0.0166389
0.0159632
-0.0159923
0.0169851
-0.0154268
0.0179875
-0.0149309
0.0189666
-0.0143863
0.0199188
-0.013846
0.0208467
-0.0133584
0.021749
-0.0128561
0.0226207
-0.0123424
0.0234621
-0.0118531
0.024274
-0.0113616
0.025055
-0.0108616
0.0258022
-0.0103708
0.0265146
-0.0098928
0.0271935
-0.00939764
0.0278382
-0.00889564
0.0284478
-0.00838659
0.0290195
-0.0079192
0.0295553
-0.00741637
0.0300549
-0.00690484
0.0305177
-0.00638733
0.0309436
-0.00586371
0.0313311
-0.00538417
0.0316813
-0.00485947
0.031994
-0.00432863
0.0322691
-0.00379315
0.0325064
-0.00325321
0.0327057
-0.00272504
0.0328674
-0.0021559
0.0329913
-0.00160287
0.033077
-0.00108499
0.0331244
-0.00060148
-0.0001509
0.0331333
0.00730907
-0.0236709
-0.00611685
0.0084937
-0.0226427
0.00967049
-0.0215563
0.0108348
-0.0205125
0.011986
-0.0197401
0.0131226
-0.0190367
0.0142403
-0.0182583
0.0153422
-0.0177408
0.016423
-0.017073
0.0174818
-0.0164856
0.0185202
-0.0159692
0.0195344
-0.0154005
0.020521
-0.0148327
0.0214825
-0.0143199
0.0224175
-0.0137911
0.0233212
-0.0132461
0.0241939
-0.0127258
0.0250361
-0.0122037
0.0258465
-0.011672
0.0266222
-0.0111465
0.0273623
-0.0106329
0.0280678
-0.0101032
0.028738
-0.00956579
0.029372
-0.00902059
0.0299669
-0.00851418
0.0305247
-0.00797412
0.0310449
-0.00742501
0.031527
-0.00686945
0.0319707
-0.00630738
0.0323745
-0.00578798
0.0327395
-0.00522446
0.0330654
-0.00465459
0.0333521
-0.00407984
0.0335993
-0.00350043
0.0338069
-0.00293261
0.0339752
-0.00232417
0.0341039
-0.00173159
0.0341927
-0.00117382
0.0342414
-0.000650178
-0.000159264
0.0342498
0.00745477
-0.0249087
-0.00621699
0.00868429
-0.0238722
0.00990519
-0.0227772
0.011113
-0.0217203
0.0123068
-0.0209339
0.0134853
-0.0202152
0.0146442
-0.0194172
0.0157863
-0.0188829
0.0169065
-0.0181932
0.0180041
-0.0175832
0.01908
-0.0170452
0.020131
-0.0164515
0.0211537
-0.0158553
0.0221502
-0.0153164
0.0231193
-0.0147602
0.0240563
-0.0141831
0.0249614
-0.0136309
0.0258349
-0.0130773
0.0266758
-0.0125129
0.0274809
-0.0119516
0.0282495
-0.0114015
0.0289824
-0.0108361
0.0296787
-0.0102621
0.0303377
-0.00967957
0.0309565
-0.00913295
0.0315367
-0.00855433
0.0320779
-0.00796624
0.0325797
-0.0073712
0.0330415
-0.0067692
0.0334619
-0.0062084
0.0338419
-0.00560449
0.0341813
-0.00499394
0.0344797
-0.00437825
0.034737
-0.0037577
0.0349528
-0.00314848
0.0351276
-0.00249897
0.0352611
-0.00186505
0.0353529
-0.00126558
0.0354027
-0.000699988
-0.000166874
0.0354103
0.00760915
-0.0261941
-0.00632377
0.00888559
-0.0251486
0.0101526
-0.0240442
0.0114059
-0.0229736
0.0126444
-0.0221724
0.0138666
-0.0214374
0.0150687
-0.0206193
0.0162529
-0.0200671
0.0174144
-0.0193548
0.0185523
-0.0187211
0.0196676
-0.0181605
0.0207571
-0.0175409
0.0218174
-0.0169156
0.0228505
-0.0163495
0.023855
-0.0157647
0.0248267
-0.0151548
0.0257655
-0.0145696
0.0266716
-0.0139835
0.027544
-0.0133852
0.0283796
-0.0127872
0.0291776
-0.0121994
0.0299387
-0.0115972
0.030662
-0.0109854
0.0313466
-0.0103642
0.0319898
-0.00977613
0.032593
-0.00915755
0.0331558
-0.00852903
0.0336776
-0.007893
0.0341579
-0.00724954
0.0345953
-0.00664578
0.0349907
-0.00599982
0.0353436
-0.00534691
0.035654
-0.00468857
0.0359214
-0.00402511
0.0361456
-0.00337271
0.0363269
-0.0026803
0.0364651
-0.00200319
0.0365597
-0.00136017
0.0366104
-0.000750722
-0.000173467
0.036617
0.00777234
-0.0275292
-0.00643726
0.00909776
-0.026474
0.010413
-0.0253595
0.0117138
-0.0242744
0.012999
-0.0234576
0.014267
-0.0227055
0.0155142
-0.0218664
0.0167424
-0.0212953
0.017947
-0.0205594
0.0191273
-0.0199013
0.0202837
-0.019317
0.0214133
-0.0186705
0.0225129
-0.0180152
0.0235842
-0.0174208
0.0246258
-0.0168063
0.0256335
-0.0161625
0.0266073
-0.0155434
0.0275473
-0.0149235
0.0284523
-0.0142902
0.0293195
-0.0136544
0.0301479
-0.0130278
0.0309381
-0.0123874
0.0316892
-0.0117365
0.0324003
-0.0110753
0.0330685
-0.0104444
0.0336954
-0.00978441
0.0342803
-0.00911394
0.0348227
-0.00843537
0.035322
-0.00774883
0.0357767
-0.00710049
0.0361877
-0.00641078
0.0365545
-0.00571377
0.036877
-0.005011
0.0371547
-0.00430283
0.0373874
-0.00360539
0.0375753
-0.0028682
0.0377181
-0.002146
0.0378154
-0.00145749
0.0378669
-0.000802213
-0.000178807
0.0378722
0.00794448
-0.0289161
-0.00655755
0.00932104
-0.0278506
0.0106866
-0.026725
0.012037
-0.0256248
0.013371
-0.0247915
0.0146869
-0.0240214
0.0159811
-0.0231606
0.0172553
-0.0225695
0.0185051
-0.0218092
0.0197295
-0.0211257
0.020929
-0.0205164
0.0221005
-0.019842
0.0232411
-0.0191558
0.0243522
-0.0185319
0.0254324
-0.0178864
0.0264777
-0.0172078
0.0274879
-0.0165537
0.0284631
-0.0158987
0.0294021
-0.0152291
0.030302
-0.0145543
0.0311619
-0.0138877
0.0319822
-0.0132077
0.032762
-0.0125163
0.0335003
-0.0118136
0.0341945
-0.0111386
0.0348457
-0.0104356
0.0354534
-0.00972161
0.0360169
-0.00899887
0.0365356
-0.00826758
0.0370081
-0.00757298
0.0374351
-0.00683775
0.0378161
-0.00609483
0.0381509
-0.00534579
0.0384391
-0.00459102
0.0386804
-0.00384665
0.0388749
-0.00306272
0.0390224
-0.00229345
0.0391223
-0.00155745
0.0391744
-0.000854321
-0.000182683
0.0391783
0.00812577
-0.0303571
-0.00668477
0.00955568
-0.0292805
0.0109737
-0.028143
0.0123759
-0.0270271
0.0137608
-0.0261764
0.0151268
-0.0253874
0.0164702
-0.0245041
0.0177924
-0.0238918
0.0190894
-0.0231062
0.0203599
-0.0223962
0.0216042
-0.0217608
0.0228196
-0.0210574
0.024003
-0.0203392
0.0251556
-0.0196845
0.026276
-0.0190069
0.0273605
-0.0182923
0.0284086
-0.0176018
0.0294204
-0.0169105
0.0303946
-0.0162033
0.0313285
-0.0154882
0.032221
-0.0147802
0.0330725
-0.0140592
0.033882
-0.0133258
0.0346486
-0.0125802
0.0353695
-0.0118595
0.0360458
-0.0111119
0.0366769
-0.0103527
0.0372622
-0.00958412
0.0378009
-0.00880633
0.0382917
-0.00806373
0.0387351
-0.00728114
0.0391307
-0.00649045
0.0394781
-0.00569323
0.039777
-0.00488994
0.040027
-0.00409664
0.0402283
-0.00326397
0.0403804
-0.00244559
0.040483
-0.00166003
0.0405356
-0.000906942
-0.000184926
0.0405378
0.00831641
-0.0318545
-0.00681903
0.00980195
-0.0307661
0.0112748
-0.0296159
0.012731
-0.0284833
0.0141691
-0.0276144
0.0155872
-0.0268055
0.0169819
-0.0258988
0.0183544
-0.0252642
0.0197005
-0.0244523
0.0210191
-0.0237148
0.0223104
-0.0230521
0.0235714
-0.0223184
0.0247994
-0.0215672
0.0259953
-0.0208804
0.0271577
-0.0201693
0.028283
-0.0194175
0.0293706
-0.0186895
0.0304205
-0.0179604
0.0314314
-0.0172142
0.0324005
-0.0164574
0.0333269
-0.0157067
0.0342108
-0.0149431
0.0350511
-0.0141661
0.0358468
-0.0133759
0.0365953
-0.012608
0.0372976
-0.0118142
0.0379529
-0.0110081
0.0385606
-0.0101918
0.03912
-0.00936571
0.0396295
-0.00857328
0.0400898
-0.00774144
0.0405004
-0.00690103
0.0408608
-0.00605366
0.0411707
-0.00519983
0.0414297
-0.00435558
0.0416378
-0.00347208
0.0417947
-0.00260248
0.0418999
-0.00176522
0.0419529
-0.000960017
-0.000185409
0.0419534
0.00851664
-0.0334106
-0.0069605
0.0100602
-0.0323096
0.0115902
-0.0311459
0.0131028
-0.0299959
0.0145962
-0.0291079
0.0160688
-0.028278
0.0175171
-0.0273471
0.0189419
-0.026689
0.0203393
-0.0258497
0.0217081
-0.0250836
0.0230483
-0.0243922
0.0243571
-0.0236272
0.0256316
-0.0228418
0.0268727
-0.0221215
0.0280789
-0.0213754
0.0292466
-0.0205852
0.0303753
-0.0198182
0.0314649
-0.0190499
0.0325138
-0.0182631
0.0335197
-0.0174633
0.0344813
-0.0166682
0.0353987
-0.0158605
0.0362709
-0.0150383
0.0370969
-0.0142018
0.037874
-0.0133852
0.0386031
-0.0125433
0.0392835
-0.0116884
0.0399143
-0.0108226
0.040495
-0.00994636
0.041024
-0.00910223
0.0415017
-0.00821916
0.0419277
-0.00732703
0.0423015
-0.00642746
0.0426227
-0.00552101
0.0428908
-0.00462371
0.043106
-0.00368723
0.0432677
-0.00276423
0.0433756
-0.00187308
0.0434291
-0.00101353
-0.000184072
0.0434278
0.00872671
-0.035028
-0.00710935
0.0103307
-0.0339136
0.0119202
-0.0327354
0.0134916
-0.0315672
0.0150429
-0.0306592
0.0165722
-0.0298074
0.0180763
-0.0288513
0.0195557
-0.0281684
0.0210067
-0.0273007
0.0224279
-0.0265047
0.0238191
-0.0257835
0.0251776
-0.0249857
0.0265007
-0.0241648
0.0277888
-0.0234097
0.0290406
-0.0226272
0.0302526
-0.0217972
0.0314242
-0.0209898
0.032555
-0.0201807
0.0336437
-0.0193518
0.0346877
-0.0185072
0.0356858
-0.0176664
0.0366381
-0.0168128
0.0375434
-0.0159436
0.0384008
-0.0150591
0.0392076
-0.014192
0.0399645
-0.0133002
0.0406707
-0.0123947
0.0413256
-0.0114775
0.0419283
-0.010549
0.0424773
-0.00965124
0.042973
-0.00871489
0.0434149
-0.00776895
0.0438026
-0.00681507
0.0441354
-0.00585386
0.044413
-0.00490132
0.0446355
-0.00390965
0.0448022
-0.00293102
0.0449129