/*--------------------------------*- C++ -*----------------------------------*\
| =========                 |                                                 |
| \\      /  F ield         | OpenFOAM: The Open Source CFD Toolbox           |
|  \\    /   O peration     | Version:  3.0.1                                 |
|   \\  /    A nd           | Web:      www.OpenFOAM.org                      |
|    \\/     M anipulation  |                                                 |
\*---------------------------------------------------------------------------*/
FoamFile
{
    version     2.0;
    format      ascii;
    class       volVectorField;
    location    "300";
    object      U;
}
// * * * * * * * * * * * * * * * * * * * * * * * * * * * * * * * * * * * * * //

dimensions      [0 1 -1 0 0 0 0];

internalField   nonuniform List<vector> 
58000
(
(0.314144 1.10611 9.08921e-22)
(0.451369 1.23795 -1.32832e-20)
(0.59574 1.28569 1.71163e-20)
(0.721659 1.25468 -2.72141e-20)
(0.821826 1.17896 -5.41011e-20)
(0.900876 1.08307 0)
(0.963571 0.985585 -3.13805e-20)
(1.01146 0.890013 -7.02813e-22)
(1.05055 0.801304 3.55222e-20)
(1.08212 0.724842 0)
(1.10771 0.657978 3.84616e-20)
(1.12951 0.59998 3.62379e-20)
(1.1491 0.552831 -1.16522e-19)
(1.16341 0.513417 4.08167e-20)
(1.17387 0.479372 3.62556e-20)
(1.18195 0.450484 7.32382e-20)
(1.18765 0.426027 -1.0742e-19)
(1.19164 0.404461 0)
(1.1944 0.384542 6.82286e-20)
(1.19624 0.365912 -1.01354e-19)
(1.19722 0.348855 7.86934e-22)
(1.19727 0.33296 3.3059e-20)
(1.19687 0.317708 1.5645e-20)
(1.19557 0.30256 0)
(1.19407 0.288098 2.963e-20)
(1.19169 0.27449 -1.46549e-20)
(1.18894 0.261374 0)
(1.18593 0.248573 3.10781e-22)
(1.18223 0.235818 0)
(1.17848 0.223613 -1.35975e-20)
(1.17416 0.212085 6.64277e-20)
(1.16966 0.20091 -6.59636e-20)
(1.165 0.18996 -3.8812e-20)
(1.15999 0.179099 1.01778e-19)
(1.15473 0.168455 -2.52655e-20)
(1.14708 0.157931 -1.24369e-20)
(1.13602 0.147887 1.84884e-20)
(1.12466 0.139085 -1.18734e-20)
(1.11466 0.131579 1.77113e-20)
(1.1136 0.126663 0)
(0.542321 0.721877 -8.01847e-21)
(0.648611 0.798474 0)
(0.758799 0.856967 2.05321e-23)
(0.866705 0.908218 -2.09284e-23)
(0.968392 0.941289 3.2293e-20)
(1.06115 0.951703 2.59791e-20)
(1.14017 0.942637 -5.0261e-20)
(1.20686 0.917993 1.45167e-20)
(1.26117 0.880958 6.99813e-20)
(1.30199 0.837721 -3.82189e-20)
(1.33233 0.790017 0)
(1.35324 0.740054 -7.03408e-20)
(1.3653 0.692657 4.6725e-20)
(1.37211 0.64862 2.53524e-20)
(1.37516 0.606331 -2.5371e-20)
(1.37553 0.567658 0)
(1.37419 0.53338 2.50645e-20)
(1.37174 0.501906 0)
(1.36851 0.472287 9.51503e-20)
(1.36483 0.444971 -1.42459e-19)
(1.361 0.420434 0)
(1.35696 0.397708 1.1533e-19)
(1.35272 0.375989 -9.15405e-20)
(1.34817 0.355022 0)
(1.3436 0.335635 -3.30185e-20)
(1.33899 0.317787 0)
(1.33417 0.300602 0)
(1.32915 0.283905 3.16358e-20)
(1.32381 0.267595 0)
(1.31845 0.252296 -3.07494e-20)
(1.31306 0.238 4.0687e-20)
(1.30749 0.224096 -3.9697e-20)
(1.3017 0.210461 2.95561e-20)
(1.29563 0.19704 -1.95555e-20)
(1.28932 0.184059 0)
(1.28273 0.171709 -2.86144e-20)
(1.27598 0.160485 1.88619e-20)
(1.26933 0.15069 0)
(1.2633 0.14181 -4.64826e-21)
(1.25857 0.134198 9.10249e-21)
(0.570244 0.655162 2.62371e-21)
(0.619451 0.717142 -9.99954e-22)
(0.681129 0.770247 -4.09823e-22)
(0.751859 0.81174 7.76606e-22)
(0.826836 0.840789 -8.12604e-22)
(0.904462 0.858163 -1.39454e-20)
(0.978477 0.863549 1.80638e-20)
(1.04922 0.857575 0)
(1.11383 0.841592 -2.52672e-20)
(1.16891 0.817456 2.31627e-20)
(1.21663 0.786494 2.9073e-20)
(1.25649 0.750847 -1.64067e-21)
(1.28707 0.71375 0)
(1.31077 0.676038 6.51788e-20)
(1.32926 0.637924 -3.41233e-20)
(1.34252 0.601717 0)
(1.3515 0.568346 0)
(1.35755 0.536907 0)
(1.36141 0.50701 -1.70802e-20)
(1.36344 0.479254 1.81934e-20)
(1.36406 0.453974 0)
(1.36365 0.430342 1.6928e-20)
(1.36247 0.407777 0)
(1.36061 0.386152 0)
(1.35824 0.366125 3.39407e-20)
(1.35544 0.347487 -6.68897e-20)
(1.35223 0.329512 6.69132e-20)
(1.34867 0.312137 1.60162e-20)
(1.34476 0.295304 -3.27658e-20)
(1.34063 0.279493 -2.39709e-20)
(1.33631 0.264581 0)
(1.3317 0.250067 1.54191e-20)
(1.32684 0.235925 0)
(1.32171 0.222144 2.94852e-22)
(1.31636 0.208936 -2.26801e-20)
(1.31074 0.19635 1.52477e-20)
(1.3048 0.184363 0)
(1.29881 0.17307 0)
(1.29305 0.162262 -3.64897e-21)
(1.28783 0.151547 -3.84419e-21)
(0.64537 0.58892 3.66833e-21)
(0.678961 0.634265 9.34571e-22)
(0.718137 0.677178 -1.10613e-21)
(0.763862 0.714922 1.81976e-24)
(0.815168 0.744824 2.32848e-21)
(0.871262 0.766316 0)
(0.928399 0.778352 -7.04814e-21)
(0.985722 0.781679 0)
(1.04154 0.776795 -1.44904e-20)
(1.09252 0.764612 -3.17774e-21)
(1.13948 0.746086 -1.89413e-20)
(1.18159 0.722368 1.80325e-20)
(1.21675 0.695625 -2.32954e-20)
(1.2461 0.666685 -4.76094e-20)
(1.27089 0.635874 -2.52839e-20)
(1.29054 0.60508 2.59563e-20)
(1.30549 0.575388 -2.45945e-20)
(1.31707 0.546452 0)
(1.32603 0.518206 -1.16941e-20)
(1.33255 0.491395 -5.3381e-20)
(1.337 0.466509 5.35636e-20)
(1.33995 0.442956 -1.38167e-20)
(1.34175 0.420282 0)
(1.34256 0.398426 0)
(1.34247 0.378041 3.92028e-20)
(1.34166 0.358978 -5.27894e-20)
(1.34026 0.340572 5.2085e-20)
(1.33834 0.322752 -4.65472e-22)
(1.33592 0.305466 -1.03009e-19)
(1.33311 0.289173 6.44797e-20)
(1.32998 0.273782 -2.51636e-20)
(1.3265 0.25882 -1.26012e-20)
(1.32268 0.244257 4.98206e-20)
(1.31853 0.230077 -1.84932e-20)
(1.31412 0.216484 6.26557e-21)
(1.30951 0.203532 -5.94982e-21)
(1.30467 0.191069 -5.90531e-21)
(1.29967 0.179078 0)
(1.29465 0.167506 2.93555e-21)
(1.28982 0.156333 -3.05976e-21)
(0.688067 0.547442 -1.68426e-21)
(0.712102 0.58306 -2.64323e-21)
(0.739991 0.618236 2.45271e-22)
(0.772794 0.651264 3.11884e-22)
(0.810673 0.679844 -9.66234e-22)
(0.853616 0.703027 0)
(0.899203 0.718991 2.91045e-21)
(0.946701 0.727897 2.77037e-21)
(0.994726 0.729826 0)
(1.04041 0.724921 9.15688e-21)
(1.08417 0.714 1.08631e-20)
(1.12507 0.697889 0)
(1.16085 0.677989 -1.64713e-20)
(1.19211 0.655097 1.76558e-20)
(1.2198 0.629686 0)
(1.24292 0.603302 -3.52279e-20)
(1.26153 0.576966 9.65756e-20)
(1.2768 0.550617 6.01629e-22)
(1.28935 0.524362 -1.89902e-20)
(1.29921 0.498981 0)
(1.30663 0.475025 0)
(1.31222 0.452077 0)
(1.31643 0.429814 2.02993e-20)
(1.31941 0.40824 0)
(1.32122 0.387994 0)
(1.32206 0.368951 0)
(1.32215 0.350517 3.14638e-20)
(1.32159 0.332642 -4.18305e-20)
(1.32043 0.315296 5.13305e-20)
(1.31873 0.298913 -3.13443e-20)
(1.31658 0.283396 0)
(1.31401 0.268303 0)
(1.31105 0.253616 -1.02427e-20)
(1.30772 0.239326 3.03386e-20)
(1.30409 0.225624 -2.13274e-22)
(1.30022 0.212544 -2.4719e-20)
(1.2961 0.199887 1.493e-20)
(1.29176 0.187596 0)
(1.28724 0.175669 0)
(1.2826 0.164146 -4.91213e-21)
(0.725089 0.514977 0)
(0.743666 0.543487 1.86427e-21)
(0.764538 0.572248 2.30102e-21)
(0.788865 0.600308 -7.77932e-22)
(0.817308 0.626018 -9.36506e-22)
(0.850347 0.64861 1.63198e-21)
(0.886643 0.666108 1.57891e-21)
(0.925661 0.678328 6.16402e-21)
(0.966448 0.684894 1.16977e-21)
(1.00659 0.68539 -1.35873e-20)
(1.04622 0.680434 -4.15235e-22)
(1.08443 0.670499 -2.85089e-20)
(1.11904 0.656408 4.24284e-20)
(1.15028 0.638896 -2.25959e-20)
(1.17883 0.618465 2.61088e-20)
(1.20353 0.596326 -2.49778e-20)
(1.22418 0.573416 0)
(1.24174 0.549863 0)
(1.25669 0.525874 0)
(1.26893 0.502211 0)
(1.27857 0.479472 -1.68993e-20)
(1.28623 0.457403 -1.59709e-20)
(1.29236 0.435787 4.9169e-20)
(1.29711 0.414679 -3.33615e-20)
(1.30048 0.394709 0)
(1.30271 0.375802 1.63235e-20)
(1.30407 0.357439 -2.49406e-20)
(1.30466 0.339587 3.38238e-20)
(1.30454 0.322227 -5.85043e-20)
(1.30378 0.305777 1.68853e-20)
(1.30247 0.290154 -3.32324e-20)
(1.30066 0.274948 3.3408e-20)
(1.29841 0.260144 -4.02422e-22)
(1.29574 0.24573 8.44485e-21)
(1.29272 0.231887 0)
(1.28941 0.218643 0)
(1.28583 0.205798 -8.07208e-21)
(1.28197 0.19329 8.11468e-21)
(1.27786 0.181142 0)
(1.27353 0.169428 -3.88415e-21)
(0.753789 0.489288 8.84771e-22)
(0.769032 0.512767 -1.09377e-21)
(0.785758 0.536659 -3.31657e-22)
(0.804892 0.56041 3.90997e-22)
(0.827155 0.582895 -1.52976e-22)
(0.8532 0.603655 -1.60041e-21)
(0.882383 0.620937 -1.95564e-21)
(0.914447 0.634472 -8.39914e-22)
(0.948848 0.643683 0)
(0.983674 0.647789 0)
(1.01895 0.647201 5.02666e-21)
(1.05389 0.642095 0)
(1.08647 0.6328 0)
(1.11669 0.619932 -1.77629e-20)
(1.14501 0.603975 9.3204e-21)
(1.17021 0.58582 -1.96836e-20)
(1.19191 0.566282 1.10025e-20)
(1.21087 0.545612 0)
(1.22744 0.524071 1.14495e-20)
(1.24139 0.502374 1.31876e-20)
(1.25273 0.481129 -2.64372e-20)
(1.26205 0.460216 3.9781e-20)
(1.26975 0.439511 1.90186e-22)
(1.27599 0.419114 -2.68015e-20)
(1.2807 0.399644 1.40501e-20)
(1.28414 0.381073 -2.73593e-20)
(1.28661 0.362958 -2.75008e-20)
(1.28821 0.345284 -1.34195e-20)
(1.28903 0.328052 1.41921e-20)
(1.28909 0.311663 -3.39164e-20)
(1.28852 0.296049 5.50573e-20)
(1.28739 0.280834 -2.03246e-22)
(1.28577 0.266003 -5.50041e-20)
(1.28368 0.251551 7.06098e-21)
(1.28118 0.237649 0)
(1.27834 0.224323 2.01486e-20)
(1.27519 0.211379 -6.98722e-21)
(1.27172 0.198755 0)
(1.26795 0.186485 3.32477e-21)
(1.26388 0.17465 3.62403e-21)
(0.777443 0.468063 -9.30937e-22)
(0.790385 0.487804 3.14789e-22)
(0.804338 0.507965 2.05839e-22)
(0.820032 0.528198 5.31882e-24)
(0.838114 0.547712 1.12279e-22)
(0.859223 0.566272 1.1724e-21)
(0.883088 0.582446 -8.50803e-22)
(0.909643 0.596007 1.92197e-21)
(0.938651 0.606363 -2.00741e-21)
(0.968669 0.612587 0)
(0.999717 0.614934 2.81304e-21)
(1.03116 0.613369 -1.01536e-20)
(1.06122 0.607852 5.31455e-21)
(1.08976 0.598851 -1.91907e-20)
(1.11709 0.586787 2.26208e-20)
(1.14201 0.572256 -2.27893e-20)
(1.164 0.555927 2.53028e-20)
(1.18365 0.538117 0)
(1.2012 0.519103 -9.94273e-21)
(1.21632 0.499526 1.03532e-20)
(1.22893 0.479972 -1.06838e-20)
(1.23953 0.46043 2.11125e-20)
(1.24852 0.440855 -4.29615e-20)
(1.25599 0.421381 2.17384e-20)
(1.26187 0.402603 1.15221e-20)
(1.26637 0.38454 1.15917e-20)
(1.26983 0.366828 -2.2627e-20)
(1.27235 0.349472 4.56461e-20)
(1.27402 0.332488 0)
(1.27485 0.316264 3.47376e-20)
(1.27495 0.30075 -3.41444e-20)
(1.27446 0.285605 2.2882e-20)
(1.27341 0.270819 -1.71464e-20)
(1.27185 0.256391 5.87947e-21)
(1.26983 0.242484 5.58126e-21)
(1.26743 0.229128 -2.81807e-22)
(1.26466 0.216138 -5.83227e-21)
(1.26154 0.203458 0)
(1.25807 0.191126 -2.80255e-21)
(1.25427 0.179227 2.94663e-21)
(0.79712 0.450059 0)
(0.808415 0.466951 0)
(0.820438 0.484218 -2.15777e-21)
(0.83376 0.501626 8.27908e-22)
(0.848933 0.518592 -3.3302e-23)
(0.866524 0.53502 -9.04942e-22)
(0.886446 0.549762 1.87665e-21)
(0.908737 0.562667 0)
(0.933356 0.573214 0)
(0.959236 0.580473 -4.99289e-21)
(0.986426 0.584609 -7.38954e-21)
(1.01445 0.585466 -5.10436e-23)
(1.04182 0.582754 1.34156e-20)
(1.06832 0.576809 -2.75293e-21)
(1.09417 0.567972 -8.83326e-21)
(1.11825 0.556588 0)
(1.13995 0.543176 0)
(1.15972 0.528065 0)
(1.17771 0.511526 0)
(1.19352 0.494105 -1.60236e-20)
(1.20699 0.476346 1.62303e-20)
(1.21855 0.458317 2.53448e-20)
(1.22853 0.440034 -3.50509e-20)
(1.23701 0.421652 9.1495e-21)
(1.24387 0.403732 0)
(1.24929 0.38634 -1.85881e-20)
(1.25363 0.36918 1.87492e-20)
(1.25698 0.352279 -9.81129e-21)
(1.25941 0.335669 0)
(1.26095 0.319724 -9.86284e-21)
(1.26169 0.304413 9.98044e-21)
(1.26178 0.28943 3.86287e-20)
(1.26128 0.274773 -3.87176e-20)
(1.26022 0.260444 1.94092e-20)
(1.25865 0.246604 -4.96738e-21)
(1.25665 0.233284 -2.40019e-20)
(1.25425 0.220312 9.68765e-21)
(1.25145 0.207638 4.78722e-21)
(1.24828 0.195302 -7.19599e-21)
(1.24473 0.183386 2.49836e-21)
(0.813784 0.434465 0)
(0.823832 0.449126 0)
(0.834432 0.464105 1.27518e-21)
(0.846039 0.479236 -8.83269e-22)
(0.859114 0.494071 5.75938e-23)
(0.874141 0.508589 5.81806e-22)
(0.891117 0.521869 -1.28611e-21)
(0.910128 0.533826 -9.72239e-22)
(0.931241 0.544032 3.21732e-21)
(0.953669 0.551627 -3.72414e-21)
(0.977493 0.556728 -1.24728e-22)
(1.00238 0.559127 3.70917e-23)
(1.0271 0.558396 5.08992e-21)
(1.05143 0.55476 8.00096e-21)
(1.07554 0.548486 9.94802e-21)
(1.0984 0.539723 -1.1779e-22)
(1.1194 0.528847 -9.84013e-21)
(1.13885 0.516173 0)
(1.15684 0.501941 -1.14635e-20)
(1.17294 0.486605 1.21996e-20)
(1.18691 0.470648 -1.35946e-20)
(1.1991 0.454189 7.17156e-21)
(1.2098 0.437284 3.02997e-22)
(1.21906 0.420101 7.95846e-21)
(1.2267 0.403161 -1.51211e-20)
(1.2329 0.386562 0)
(1.23799 0.370077 2.33794e-20)
(1.24206 0.353748 -3.96132e-20)
(1.24519 0.337623 3.21346e-20)
(1.24736 0.322058 -2.46178e-20)
(1.24869 0.307044 -1.6271e-20)
(1.24933 0.29231 1.64e-20)
(1.24934 0.277861 1.64021e-20)
(1.24875 0.263706 -1.65003e-20)
(1.24761 0.25 8.21262e-21)
(1.24599 0.23678 1.94373e-22)
(1.24394 0.223886 0)
(1.24147 0.211273 0)
(1.23859 0.198987 3.99932e-21)
(1.23528 0.1871 0)
(0.828076 0.420737 7.99794e-22)
(0.837146 0.433612 1.50484e-22)
(0.846653 0.44675 -1.53413e-22)
(0.856968 0.460029 3.42805e-24)
(0.868475 0.473088 0)
(0.881581 0.48595 -7.47027e-23)
(0.896319 0.497864 4.35811e-22)
(0.912793 0.508795 -4.43682e-22)
(0.931119 0.5184 1.80716e-21)
(0.950713 0.525913 -2.19746e-21)
(0.971677 0.531433 3.5625e-21)
(0.99379 0.53474 0)
(1.01605 0.535344 -4.70994e-21)
(1.03824 0.533388 1.4965e-21)
(1.06052 0.529079 1.41168e-20)
(1.08197 0.522424 -1.52136e-20)
(1.10199 0.513679 2.53569e-20)
(1.12082 0.503126 -8.76172e-21)
(1.13847 0.490969 1.03026e-20)
(1.15452 0.477567 -1.09686e-20)
(1.16867 0.463338 0)
(1.18121 0.44843 1.20344e-20)
(1.19238 0.432923 1.15209e-20)
(1.20218 0.416988 0)
(1.21042 0.401097 0)
(1.21723 0.385378 1.25599e-20)
(1.22295 0.369656 6.43948e-21)
(1.22764 0.353989 -6.45675e-21)
(1.23136 0.338438 1.32181e-20)
(1.2341 0.32334 2.05143e-20)
(1.23596 0.308706 -1.38737e-20)
(1.2371 0.294298 0)
(1.23758 0.280131 -1.4029e-20)
(1.23743 0.266219 1.41181e-20)
(1.2367 0.252712 7.04461e-21)
(1.23544 0.239651 -4.82671e-23)
(1.23373 0.226892 -7.10411e-21)
(1.23156 0.214396 0)
(1.22896 0.202207 -1.05076e-20)
(1.2259 0.190395 0)
(0.840472 0.408495 -9.76719e-22)
(0.848749 0.419912 1.00789e-21)
(0.857388 0.431544 7.35128e-22)
(0.866693 0.443297 -5.96607e-22)
(0.876987 0.454873 -3.03529e-22)
(0.888614 0.466314 6.87608e-23)
(0.901618 0.477002 4.06948e-22)
(0.916105 0.486933 -8.17954e-22)
(0.932208 0.495834 -2.23822e-22)
(0.949483 0.503038 1.84485e-21)
(0.968046 0.508634 -5.26975e-21)
(0.987755 0.512413 -5.96476e-22)
(1.0078 0.513873 1.2124e-20)
(1.02799 0.513101 -8.67058e-21)
(1.04847 0.510259 -5.71645e-21)
(1.06843 0.505259 6.94082e-21)
(1.08733 0.498258 -1.36812e-20)
(1.10533 0.4895 -7.04332e-21)
(1.12241 0.479153 1.64639e-20)
(1.13815 0.46749 -1.67324e-20)
(1.15223 0.454863 0)
(1.16488 0.441432 0)
(1.17628 0.427287 -8.1851e-22)
(1.18643 0.412596 0)
(1.19508 0.397781 0)
(1.20236 0.382985 -1.14068e-20)
(1.20857 0.368082 -1.0878e-20)
(1.21375 0.35314 -1.11093e-20)
(1.21798 0.338227 1.0905e-20)
(1.2212 0.323664 -6.41558e-21)
(1.22353 0.309476 -3.43624e-22)
(1.22512 0.295461 1.1995e-20)
(1.22602 0.281638 0)
(1.22627 0.268028 1.8011e-20)
(1.22591 0.254778 -1.22141e-20)
(1.225 0.241931 -1.20368e-20)
(1.2236 0.229359 6.13724e-21)
(1.22173 0.217029 -3.0471e-21)
(1.2194 0.204984 9.34798e-21)
(1.21658 0.193289 0)
(0.851325 0.397463 6.30955e-22)
(0.858943 0.40767 -4.08435e-22)
(0.866872 0.418051 -1.74675e-22)
(0.875364 0.428532 5.09179e-22)
(0.884693 0.43886 3.33059e-22)
(0.895149 0.449086 8.48639e-23)
(0.906779 0.458693 -4.64081e-22)
(0.919683 0.467695 1.40294e-21)
(0.933994 0.475877 -2.25413e-21)
(0.949368 0.482658 -1.69731e-21)
(0.965924 0.488125 2.21444e-21)
(0.983576 0.492089 -2.8525e-21)
(1.00166 0.494065 5.95408e-21)
(1.02003 0.494104 4.00253e-21)
(1.03881 0.492334 8.73818e-21)
(1.05731 0.488606 5.45615e-22)
(1.07502 0.483006 -5.86288e-21)
(1.09208 0.475738 2.48698e-20)
(1.10844 0.466935 -3.28094e-20)
(1.12369 0.456799 2.85488e-20)
(1.13751 0.445619 -7.56398e-21)
(1.15007 0.433555 0)
(1.16152 0.4207 -6.84618e-22)
(1.17182 0.40721 0)
(1.18073 0.393459 0)
(1.18833 0.379597 0)
(1.19489 0.365538 6.64943e-22)
(1.20047 0.351354 2.98778e-20)
(1.20509 0.337123 -3.01519e-20)
(1.20872 0.323141 -3.16717e-22)
(1.21144 0.309451 -2.07969e-20)
(1.21342 0.295879 1.03542e-20)
(1.2147 0.28245 -1.01646e-20)
(1.21531 0.269193 -1.59195e-20)
(1.21529 0.256248 -5.14078e-21)
(1.21469 0.243663 1.06135e-20)
(1.21359 0.231324 0)
(1.21198 0.219203 -5.1837e-21)
(1.20991 0.207343 -6.50334e-21)
(1.20732 0.195806 1.36547e-21)
(0.860905 0.387437 5.58614e-22)
(0.867963 0.396627 0)
(0.875297 0.405955 -1.3386e-21)
(0.883117 0.415362 4.53147e-22)
(0.891657 0.424631 2.78898e-22)
(0.901165 0.433815 -3.33015e-23)
(0.911683 0.442473 0)
(0.923303 0.450634 -6.01868e-22)
(0.936152 0.458123 9.71852e-22)
(0.949956 0.464437 -1.4673e-21)
(0.964831 0.469661 -1.98343e-21)
(0.980728 0.473629 -4.10164e-22)
(0.997107 0.475886 -3.76495e-22)
(1.01384 0.476461 0)
(1.03105 0.475457 -1.13872e-20)
(1.04815 0.472694 1.21174e-20)
(1.06469 0.468202 0)
(1.08075 0.462153 -1.01984e-20)
(1.0963 0.454648 5.82286e-21)
(1.11095 0.445831 -1.23233e-20)
(1.12437 0.435934 5.78419e-21)
(1.13669 0.425109 0)
(1.14803 0.413447 7.07995e-21)
(1.15834 0.401089 -7.47483e-21)
(1.16736 0.388363 0)
(1.17515 0.375421 -1.61547e-20)
(1.18196 0.362205 1.68876e-20)
(1.18781 0.348792 8.80465e-21)
(1.19275 0.335261 -1.70896e-20)
(1.1967 0.321891 0)
(1.19975 0.308733 2.73993e-22)
(1.20205 0.295641 -1.76832e-20)
(1.20365 0.282647 9.35369e-21)
(1.20458 0.269781 0)
(1.20485 0.257181 4.73669e-21)
(1.20454 0.244897 -4.75545e-21)
(1.20371 0.23283 4.51216e-21)
(1.20235 0.220955 4.77941e-21)
(1.20052 0.209318 9.30239e-21)
(1.19815 0.197973 4.60659e-21)
(0.86942 0.378262 0)
(0.875996 0.386586 0)
(0.882821 0.395016 4.04571e-23)
(0.890073 0.403507 -8.1823e-22)
(0.897954 0.41187 -1.19844e-23)
(0.906675 0.420154 -2.46382e-23)
(0.916276 0.427983 0)
(0.926838 0.43539 0)
(0.938476 0.442232 8.95735e-22)
(0.95097 0.448074 -9.17817e-22)
(0.964429 0.452997 3.87739e-22)
(0.978828 0.456856 -1.60232e-21)
(0.99372 0.459236 0)
(1.00901 0.46015 0)
(1.02479 0.459684 5.70417e-21)
(1.04059 0.457642 -6.5618e-21)
(1.05599 0.454019 6.79453e-22)
(1.07106 0.448957 5.17487e-21)
(1.08576 0.442531 -8.9975e-21)
(1.09973 0.434838 0)
(1.11266 0.426064 5.23278e-21)
(1.12464 0.416345 5.55815e-21)
(1.13576 0.405769 0)
(1.14595 0.394461 6.31705e-21)
(1.15497 0.382703 -1.31468e-20)
(1.16284 0.370645 0)
(1.16978 0.358254 7.36374e-21)
(1.17582 0.345604 -7.13469e-21)
(1.18097 0.332778 2.20078e-20)
(1.18516 0.320032 0)
(1.18847 0.307426 1.54496e-20)
(1.19104 0.29484 8.06941e-21)
(1.19291 0.282306 7.68779e-21)
(1.1941 0.269862 -7.96937e-21)
(1.19464 0.257637 8.04609e-21)
(1.19458 0.245687 0)
(1.19398 0.233922 -4.17898e-21)
(1.19286 0.222326 0)
(1.19125 0.210942 -4.19246e-21)
(1.18908 0.199821 -4.24689e-21)
(0.877035 0.369819 3.57346e-22)
(0.883188 0.377396 -5.04594e-22)
(0.889571 0.385054 1.1636e-21)
(0.896335 0.392756 3.73903e-22)
(0.903654 0.400335 -2.06328e-22)
(0.911711 0.407839 -1.3538e-23)
(0.920541 0.414941 3.77108e-23)
(0.930215 0.421675 -7.3157e-22)
(0.940838 0.427924 -4.48299e-22)
(0.952228 0.433309 -7.71922e-22)
(0.964484 0.437907 2.38697e-22)
(0.977598 0.441593 3.28264e-21)
(0.991197 0.443991 -3.36731e-21)
(1.0052 0.445104 -4.98312e-22)
(1.01971 0.445007 -5.84444e-22)
(1.03431 0.443499 1.2215e-20)
(1.04864 0.440553 -6.18619e-21)
(1.06274 0.436283 6.93148e-21)
(1.07659 0.430748 -8.2261e-21)
(1.08985 0.424007 4.86493e-23)
(1.10223 0.416203 -4.85928e-21)
(1.11379 0.407463 4.95801e-21)
(1.1246 0.397862 -1.46128e-22)
(1.13459 0.387513 0)
(1.1435 0.376656 0)
(1.15136 0.365437 -1.15215e-20)
(1.15835 0.353837 -5.95741e-21)
(1.16448 0.34193 -6.13747e-21)
(1.16977 0.329799 -4.23568e-22)
(1.17414 0.317678 -1.97626e-20)
(1.17764 0.305633 6.45316e-21)
(1.18042 0.293564 0)
(1.18251 0.281509 -1.40762e-20)
(1.18392 0.269506 1.37782e-20)
(1.18468 0.25768 0)
(1.18484 0.246087 7.08599e-21)
(1.18445 0.234651 -3.59133e-21)
(1.18353 0.223358 -7.15891e-21)
(1.18212 0.212253 5.38381e-21)
(1.18013 0.201383 -5.33422e-21)
(0.883882 0.362011 0)
(0.889661 0.368939 0)
(0.895653 0.375926 -8.9603e-22)
(0.90199 0.382943 0)
(0.908823 0.38984 0)
(0.91631 0.396663 -2.97383e-23)
(0.924482 0.403123 3.04853e-23)
(0.9334 0.409258 6.89662e-22)
(0.94316 0.414968 1.13213e-21)
(0.953607 0.419921 2.343e-21)
(0.964833 0.424191 3.1489e-21)
(0.976838 0.42767 2.79817e-21)
(0.989309 0.430017 -2.4807e-21)
(1.00218 0.431233 1.89387e-22)
(1.01555 0.431381 -4.02481e-21)
(1.02906 0.430266 9.96545e-21)
(1.04238 0.427843 -5.30251e-21)
(1.05557 0.424209 5.94787e-21)
(1.06858 0.419405 0)
(1.08113 0.413464 1.54036e-20)
(1.09292 0.406496 -1.54687e-20)
(1.10402 0.398613 -8.22049e-21)
(1.11446 0.389882 -1.81452e-20)
(1.12417 0.380399 -4.96997e-22)
(1.13291 0.370373 -3.14711e-22)
(1.14068 0.359938 2.09506e-20)
(1.14764 0.349088 5.55481e-21)
(1.1538 0.337895 1.64302e-20)
(1.15916 0.326438 -1.68311e-20)
(1.16363 0.314932 6.00247e-21)
(1.16727 0.303447 1.18449e-20)
(1.17021 0.2919 -1.19538e-20)
(1.17246 0.280331 0)
(1.17405 0.268781 -6.34015e-21)
(1.175 0.257368 0)
(1.17534 0.246151 1.61659e-22)
(1.17513 0.235062 -6.30157e-21)
(1.17439 0.224094 0)
(1.17315 0.213289 6.15885e-21)
(1.17133 0.202693 1.7974e-22)
(0.890068 0.354762 6.5641e-22)
(0.895511 0.361122 -1.12131e-22)
(0.901156 0.367521 1.42984e-22)
(0.907115 0.373937 -2.64117e-24)
(0.91352 0.380237 6.10071e-22)
(0.920511 0.38646 2.48201e-23)
(0.928111 0.392354 1.76491e-22)
(0.936378 0.397954 3.37827e-22)
(0.945394 0.403176 5.55672e-22)
(0.955028 0.407728 -1.9505e-21)
(0.965364 0.411677 -1.81468e-21)
(0.976406 0.414932 0)
(0.987889 0.417187 5.39626e-21)
(0.999759 0.418438 7.88449e-23)
(1.01211 0.418742 -7.0101e-21)
(1.02462 0.417912 -4.45383e-21)
(1.03702 0.415894 4.61401e-21)
(1.04934 0.412768 5.1187e-21)
(1.06156 0.408564 -5.63419e-21)
(1.0734 0.403294 0)
(1.0846 0.397043 7.21356e-21)
(1.0952 0.389907 8.13798e-21)
(1.10523 0.381946 9.42474e-22)
(1.11462 0.373244 -2.46722e-20)
(1.12314 0.363976 -8.41381e-21)
(1.13075 0.354267 0)
(1.13763 0.344122 9.47583e-21)
(1.14375 0.333606 -1.95913e-20)
(1.14912 0.322795 1.02713e-20)
(1.15365 0.311888 -3.61746e-22)
(1.15737 0.300954 9.97282e-21)
(1.16041 0.289926 2.0776e-20)
(1.16279 0.278845 -5.20909e-21)
(1.16452 0.267752 0)
(1.16561 0.256762 -5.33107e-21)
(1.1661 0.245931 5.69855e-21)
(1.16604 0.235204 0)
(1.16546 0.224576 5.43656e-21)
(1.16437 0.214088 -7.1674e-21)
(1.1627 0.203783 4.28472e-21)
(0.89568 0.348011 0)
(0.90082 0.353868 0)
(0.906151 0.359749 -3.11223e-22)
(0.911771 0.365635 -2.34111e-24)
(0.917797 0.371407 -8.5086e-22)
(0.924349 0.3771 0)
(0.931449 0.382491 2.0913e-22)
(0.939147 0.387613 -9.87636e-22)
(0.947515 0.392393 0)
(0.956441 0.396575 0)
(0.966 0.400219 0)
(0.976199 0.403247 -2.09119e-21)
(0.986811 0.405384 1.94565e-21)
(0.997791 0.406625 -3.02978e-22)
(1.00922 0.40702 -1.50345e-22)
(1.02084 0.406393 -7.26382e-23)
(1.03239 0.404687 -3.35405e-22)
(1.04391 0.401968 -4.82517e-21)
(1.05536 0.398256 0)
(1.06652 0.393549 0)
(1.07713 0.387911 0)
(1.08723 0.381427 1.99063e-20)
(1.09683 0.374146 -1.28671e-20)
(1.10587 0.36614 1.48673e-20)
(1.11411 0.357561 4.2739e-22)
(1.12153 0.348521 -8.03223e-21)
(1.12827 0.339032 8.11246e-21)
(1.13431 0.329153 -8.5898e-21)
(1.13964 0.318959 1.71257e-20)
(1.14417 0.308628 -5.71343e-22)
(1.14793 0.29823 -9.46079e-21)
(1.15104 0.287712 -5.75026e-22)
(1.1535 0.277114 -4.31617e-21)
(1.15533 0.266479 9.60564e-21)
(1.15653 0.255914 1.59468e-22)
(1.15714 0.245478 -4.89957e-21)
(1.15721 0.235121 4.92075e-21)
(1.15675 0.224843 -1.48991e-20)
(1.15579 0.214684 3.59572e-21)
(1.15425 0.204685 1.23916e-21)
(0.900791 0.341705 -1.67954e-22)
(0.905655 0.347116 3.09096e-22)
(0.910701 0.352535 1.15959e-21)
(0.916015 0.357951 4.27331e-22)
(0.921699 0.363254 2.93976e-22)
(0.927861 0.368477 -3.63529e-23)
(0.934517 0.373419 -1.42598e-23)
(0.941712 0.378112 -2.50369e-22)
(0.94951 0.382493 1.13953e-21)
(0.957812 0.386334 -1.83907e-21)
(0.966688 0.389691 1.27236e-21)
(0.976143 0.392496 2.25938e-22)
(0.985984 0.394501 -3.99057e-21)
(0.996171 0.395701 -4.82725e-21)
(1.00678 0.396141 2.91287e-21)
(1.01758 0.395658 6.45368e-21)
(1.02835 0.394192 3.83034e-21)
(1.03912 0.391798 -1.16031e-20)
(1.04987 0.38849 0)
(1.06037 0.384256 0)
(1.07041 0.379143 5.08713e-21)
(1.08001 0.373224 1.15726e-20)
(1.08917 0.366543 -1.19549e-20)
(1.09783 0.35916 -5.41521e-22)
(1.10577 0.351204 -4.83941e-22)
(1.11297 0.342778 -4.32303e-22)
(1.11953 0.333895 6.94785e-21)
(1.12545 0.324614 7.40935e-21)
(1.13069 0.315002 -1.57621e-20)
(1.13519 0.305221 7.37307e-21)
(1.13895 0.295342 8.14476e-21)
(1.14208 0.28532 -4.36707e-22)
(1.14458 0.275197 3.02063e-22)
(1.14648 0.265015 8.52393e-21)
(1.14776 0.254875 -4.3015e-21)
(1.14846 0.244834 -8.69716e-21)
(1.14863 0.234853 4.38706e-21)
(1.14828 0.224932 4.54377e-21)
(1.14743 0.215111 -2.59847e-22)
(1.146 0.205429 0)
(0.905462 0.335801 1.10794e-21)
(0.910072 0.340813 -1.97274e-22)
(0.914857 0.345821 -5.76026e-22)
(0.919892 0.350816 -3.70213e-22)
(0.925267 0.355701 -3.85444e-23)
(0.931076 0.360503 -3.32511e-23)
(0.937335 0.365044 -3.07199e-22)
(0.944082 0.369351 3.98872e-22)
(0.951373 0.373371 0)
(0.959123 0.376899 9.25498e-22)
(0.967392 0.379988 -1.20962e-21)
(0.976188 0.382577 3.13323e-21)
(0.98534 0.384444 -5.31029e-21)
(0.994817 0.385585 2.12082e-21)
(1.00469 0.386038 5.22638e-21)
(1.01475 0.385652 -8.25845e-21)
(1.02481 0.38437 0)
(1.03489 0.382237 3.68338e-21)
(1.04496 0.379262 0)
(1.05485 0.375426 4.12798e-21)
(1.06433 0.370763 -1.43414e-20)
(1.07343 0.365337 9.63203e-21)
(1.08215 0.359183 -1.05995e-20)
(1.09043 0.352356 0)
(1.09806 0.344962 -5.71394e-21)
(1.105 0.337096 0)
(1.11137 0.328775 -1.29757e-20)
(1.11712 0.32005 1.31045e-20)
(1.12226 0.310985 0)
(1.12668 0.301728 -1.43683e-20)
(1.1304 0.292346 -8.92714e-23)
(1.13353 0.282804 7.08817e-21)
(1.13605 0.273144 -7.43831e-21)
(1.13798 0.263407 0)
(1.13931 0.253687 0)
(1.14008 0.244042 0)
(1.14033 0.234438 1.14804e-20)
(1.14006 0.224878 -3.93369e-21)
(1.1393 0.215401 -2.33802e-22)
(1.13796 0.206045 0)
(0.909742 0.330262 -2.41274e-22)
(0.914118 0.334915 -1.77052e-22)
(0.918664 0.339553 4.83001e-22)
(0.923443 0.344172 -3.41485e-22)
(0.928535 0.348681 -2.84742e-23)
(0.934025 0.353105 5.90029e-23)
(0.939925 0.357285 3.42871e-23)
(0.946269 0.361245 -3.23265e-22)
(0.953107 0.364937 9.98408e-22)
(0.960362 0.368179 7.66188e-22)
(0.968088 0.37102 0)
(0.976294 0.373403 1.42597e-21)
(0.98483 0.375132 1.91205e-22)
(0.993668 0.376201 -2.06597e-21)
(1.00287 0.376644 4.05502e-21)
(1.01226 0.376323 0)
(1.02166 0.375181 0)
(1.03111 0.373258 1.2562e-20)
(1.04056 0.370558 5.58881e-22)
(1.04986 0.367058 -3.88078e-21)
(1.05881 0.362782 7.90221e-21)
(1.06743 0.357784 -8.47464e-21)
(1.07572 0.352097 -4.20149e-21)
(1.0836 0.345764 -1.00932e-20)
(1.09091 0.338878 1.5642e-20)
(1.09759 0.331524 1.10758e-20)
(1.10373 0.323719 -2.81999e-20)
(1.1093 0.315511 1.73365e-20)
(1.1143 0.30696 1.2256e-20)
(1.11862 0.298198 -6.32859e-21)
(1.12229 0.289291 0)
(1.12538 0.280212 6.34292e-21)
(1.12789 0.271 0)
(1.12983 0.261697 0)
(1.13119 0.252391 6.84282e-21)
(1.132 0.243138 -1.36217e-20)
(1.1323 0.233909 -1.39516e-20)
(1.13209 0.224711 -6.80852e-21)
(1.13141 0.215581 -6.166e-21)
(1.13014 0.206556 -8.63046e-22)
(0.913676 0.325057 0)
(0.917836 0.329385 0)
(0.922159 0.33369 -8.98054e-22)
(0.926701 0.337969 2.08455e-23)
(0.931534 0.34214 1.70886e-22)
(0.936732 0.346224 -2.90213e-23)
(0.942306 0.350078 -1.33905e-22)
(0.948284 0.353724 0)
(0.954713 0.357118 -5.18845e-22)
(0.961522 0.360099 -2.10244e-21)
(0.968761 0.362709 1.78358e-21)
(0.976436 0.364899 2.23584e-21)
(0.984416 0.366492 0)
(0.992677 0.367482 -3.21009e-21)
(1.00127 0.3679 -7.81179e-21)
(1.01005 0.367619 8.43214e-21)
(1.01886 0.366584 4.07493e-22)
(1.02771 0.364831 -1.67996e-20)
(1.03658 0.362358 6.28628e-21)
(1.04533 0.359143 -2.02617e-20)
(1.05378 0.355201 -5.04588e-22)
(1.06194 0.350578 5.28401e-22)
(1.0698 0.345302 5.58736e-22)
(1.0773 0.339411 8.96079e-21)
(1.08427 0.332984 3.62121e-22)
(1.09067 0.326096 -9.06747e-21)
(1.09658 0.318767 -5.1634e-21)
(1.10196 0.311038 -5.6847e-21)
(1.10679 0.302967 1.0687e-20)
(1.111 0.294672 -5.763e-21)
(1.11458 0.286218 0)
(1.11761 0.277582 -1.63436e-22)
(1.12009 0.268803 -1.76354e-20)
(1.12201 0.259922 -2.90665e-23)
(1.12338 0.251021 6.10118e-21)
(1.12421 0.242154 6.37201e-21)
(1.12455 0.233298 6.42325e-21)
(1.12439 0.224461 6.46314e-21)
(1.12376 0.215679 9.34769e-21)
(1.12256 0.206988 0)
(0.9173 0.320157 3.28974e-23)
(0.921259 0.324192 -5.03459e-22)
(0.925375 0.328195 4.17647e-22)
(0.929698 0.332166 -3.13146e-22)
(0.934291 0.336031 -1.08614e-22)
(0.939221 0.339807 0)
(0.944495 0.343366 1.28437e-22)
(0.950141 0.346727 0)
(0.956197 0.349851 -8.75358e-22)
(0.962603 0.352592 1.3117e-21)
(0.969399 0.354989 -1.70613e-21)
(0.976595 0.356998 -2.13715e-21)
(0.984072 0.35846 -2.43494e-21)
(0.991808 0.359368 -1.06925e-22)
(0.999855 0.35975 6.75436e-21)
(1.00807 0.359491 7.76498e-23)
(1.01633 0.358539 3.84605e-22)
(1.02463 0.356922 0)
(1.03297 0.354641 1.12577e-20)
(1.0412 0.351668 -5.71399e-21)
(1.04917 0.348014 6.63636e-21)
(1.05688 0.34372 -6.64751e-21)
(1.06433 0.338809 2.19539e-20)
(1.07145 0.333314 0)
(1.0781 0.3273 0)
(1.08422 0.320839 5.57799e-22)
(1.08988 0.313946 -9.31217e-21)
(1.09505 0.306663 0)
(1.09971 0.299039 -3.82774e-22)
(1.10378 0.291185 9.86546e-21)
(1.10726 0.28316 -3.61162e-22)
(1.11021 0.274948 1.03569e-20)
(1.11264 0.266586 5.48338e-21)
(1.11453 0.258112 -1.06394e-20)
(1.11589 0.249606 -1.23531e-23)
(1.11673 0.241118 5.52551e-21)
(1.11708 0.232629 0)
(1.11695 0.22415 2.65162e-21)
(1.11636 0.215715 -2.98507e-21)
(1.11521 0.207361 -5.29237e-21)
(0.920647 0.315538 6.56428e-23)
(0.924419 0.319305 8.49582e-22)
(0.928341 0.323034 -1.04169e-22)
(0.932459 0.326726 4.81971e-22)
(0.93683 0.330313 1.47603e-22)
(0.941511 0.333811 4.08125e-23)
(0.94651 0.337102 2.21364e-22)
(0.951851 0.340203 0)
(0.957567 0.343081 1.63034e-21)
(0.963604 0.345603 0)
(0.969998 0.347803 0)
(0.976757 0.349644 0)
(0.983776 0.35098 4.51345e-21)
(0.991034 0.351806 0)
(0.998579 0.352147 2.91567e-22)
(1.00628 0.351896 -1.042e-20)
(1.01403 0.351006 7.58159e-21)
(1.02183 0.349502 4.25661e-21)
(1.02966 0.34738 0)
(1.03741 0.344615 -5.132e-21)
(1.04493 0.341213 -5.92188e-21)
(1.05222 0.337208 4.84359e-24)
(1.05927 0.332622 -7.17445e-21)
(1.06603 0.32748 6.43424e-21)
(1.07235 0.321842 7.21979e-21)
(1.07819 0.315769 4.93217e-22)
(1.0836 0.309279 -7.81079e-21)
(1.08855 0.302408 -3.49566e-22)
(1.09303 0.295203 -3.907e-22)