/*--------------------------------*- C++ -*----------------------------------*\
| =========                 |                                                 |
| \\      /  F ield         | OpenFOAM: The Open Source CFD Toolbox           |
|  \\    /   O peration     | Version:  3.0.1                                 |
|   \\  /    A nd           | Web:      www.OpenFOAM.org                      |
|    \\/     M anipulation  |                                                 |
\*---------------------------------------------------------------------------*/
FoamFile
{
    version     2.0;
    format      ascii;
    class       volScalarField;
    location    "500";
    object      nut;
}
// * * * * * * * * * * * * * * * * * * * * * * * * * * * * * * * * * * * * * //

dimensions      [0 2 -1 0 0 0 0];

internalField   nonuniform List<scalar> 
58000
(
0.000792342
0.000696404
0.00059174
0.000519418
0.000489328
0.000464563
0.000447887
0.000434461
0.00042293
0.000415846
0.00041157
0.000408469
0.000406446
0.000406918
0.000407918
0.000409421
0.000411324
0.000414057
0.000417149
0.000420191
0.000423327
0.000426321
0.000429349
0.00043206
0.000434475
0.000436664
0.000438565
0.000440202
0.00044168
0.00044272
0.000443486
0.000443956
0.000444063
0.000443908
0.000442683
0.000440288
0.000437225
0.000433949
0.000430647
0.000428617
0.0030594
0.00275691
0.00245304
0.00215194
0.0018975
0.00167541
0.00149933
0.00136568
0.00125701
0.00117438
0.00111389
0.00106549
0.00102532
0.000997252
0.00097559
0.00095723
0.00094193
0.000931114
0.000923172
0.000915935
0.000909914
0.000901877
0.000894428
0.000887299
0.000879395
0.000870721
0.000861514
0.000852486
0.000844586
0.000836435
0.00082777
0.000818643
0.000809063
0.000799891
0.00078944
0.000777413
0.000764312
0.000750772
0.00073726
0.00072548
0.00532297
0.0049804
0.00459907
0.00417882
0.0038
0.00345797
0.00316391
0.00292445
0.00271858
0.0025527
0.00242555
0.00232019
0.00222842
0.00215969
0.00210649
0.00206032
0.00201899
0.00198643
0.00196182
0.00194019
0.00191971
0.00189775
0.00187849
0.00186123
0.00184378
0.00182562
0.00180682
0.00178819
0.00177181
0.00175368
0.00173322
0.00171095
0.0016871
0.00166259
0.00163684
0.00160892
0.00157965
0.00154936
0.00151922
0.00149207
0.00756155
0.00720931
0.00679266
0.00632582
0.00587566
0.00544645
0.00506608
0.00474043
0.00444706
0.00420018
0.00400356
0.00383605
0.00368683
0.00357046
0.00347815
0.00339687
0.00332325
0.00326273
0.00321523
0.00317416
0.00313348
0.0030925
0.00305675
0.00302516
0.00299415
0.00296233
0.00292979
0.00289616
0.00286415
0.00283145
0.00279685
0.00276102
0.00272217
0.00268164
0.00263934
0.00259424
0.00254767
0.00249955
0.00245123
0.00240542
0.0097676
0.00941925
0.00899374
0.00850597
0.00802363
0.00755
0.00710694
0.00672031
0.0063603
0.00604521
0.00578534
0.00555791
0.00535079
0.0051842
0.00504901
0.00492809
0.00481741
0.00472419
0.0046486
0.00458137
0.00451614
0.00445217
0.00439608
0.00434654
0.00429891
0.00424909
0.00419717
0.0041454
0.00409668
0.00404805
0.00399628
0.00394141
0.00388379
0.00382521
0.00376436
0.00369973
0.00363205
0.00356332
0.00349409
0.00342686
0.0119433
0.0116034
0.0111805
0.0106873
0.0101924
0.00969329
0.00921905
0.00879012
0.00838238
0.00801677
0.00770516
0.00742596
0.00716637
0.00695155
0.00677354
0.00661213
0.00646293
0.00633469
0.00622883
0.00613184
0.00603853
0.00594821
0.00586855
0.00579797
0.00572805
0.00565687
0.00558441
0.00551314
0.00544499
0.00537633
0.00530552
0.00523064
0.00515204
0.00507246
0.0049905
0.0049042
0.00481405
0.00472237
0.00462976
0.00453866
0.0140932
0.013764
0.0133493
0.0128601
0.0123638
0.0118556
0.0113635
0.0109106
0.01047
0.0100656
0.00971529
0.0093954
0.00909222
0.0088336
0.00861539
0.00841508
0.00822886
0.00806479
0.0079254
0.00779783
0.00767539
0.00755723
0.00745226
0.00735673
0.00726316
0.00716883
0.00707387
0.00697936
0.00689015
0.00679996
0.00670625
0.00660963
0.0065085
0.00640511
0.00630075
0.00619154
0.00607768
0.00596149
0.00584374
0.00572695
0.0162216
0.0159039
0.0155
0.0150195
0.0145263
0.0140196
0.0135209
0.013056
0.0125949
0.0121647
0.0117833
0.0114292
0.0110896
0.0107966
0.0105441
0.0103082
0.0100848
0.00988611
0.00971512
0.00955781
0.00940625
0.00925993
0.00912676
0.00900569
0.00888819
0.00876906
0.00864859
0.00853002
0.00841626
0.00830268
0.00818611
0.00806507
0.00794037
0.00781284
0.00768434
0.00755067
0.00741233
0.00726979
0.0071252
0.00698116
0.0183322
0.0180263
0.0176347
0.0171659
0.0166808
0.0161795
0.0156806
0.0152108
0.0147388
0.0142911
0.0138895
0.0135108
0.0131412
0.0128173
0.0125344
0.0122672
0.0120116
0.0117813
0.0115804
0.011395
0.0112145
0.0110383
0.0108771
0.0107304
0.0105863
0.0104413
0.0102957
0.010151
0.0100131
0.00987524
0.00973408
0.00958788
0.00943766
0.00928461
0.00913071
0.00897133
0.00880661
0.008637
0.0084648
0.00829258
0.0204279
0.0201339
0.0197551
0.0192994
0.018825
0.018332
0.0178369
0.0173655
0.0168904
0.0164332
0.016018
0.0156202
0.0152296
0.0148817
0.0145734
0.0142791
0.0139949
0.0137356
0.0135058
0.0132908
0.0130821
0.012879
0.0126905
0.0125165
0.012347
0.0121759
0.0120031
0.0118327
0.0116684
0.0115057
0.0113383
0.0111667
0.0109895
0.0108109
0.0106313
0.0104457
0.0102538
0.0100564
0.00985573
0.00965456
0.0225113
0.0222288
0.0218631
0.0214212
0.0209589
0.0204762
0.0199881
0.0195197
0.0190446
0.0185827
0.0181587
0.0177485
0.0173417
0.016973
0.0166427
0.0163248
0.0160156
0.0157305
0.0154751
0.0152339
0.0149992
0.0147679
0.0145527
0.0143533
0.0141571
0.0139605
0.0137616
0.0135648
0.0133742
0.0131857
0.0129926
0.0127949
0.0125907
0.0123856
0.0121796
0.0119681
0.011748
0.0115219
0.0112922
0.0110615
0.0245843
0.024313
0.0239602
0.0235324
0.0230828
0.0226116
0.0221325
0.0216696
0.0211973
0.0207339
0.0203036
0.0198862
0.0194685
0.0190852
0.0187378
0.0184005
0.0180694
0.0177612
0.0174822
0.0172166
0.0169553
0.0166977
0.0164571
0.0162312
0.0160093
0.0157855
0.0155609
0.0153371
0.0151199
0.0149055
0.014688
0.014465
0.014234
0.0140021
0.0137692
0.0135305
0.0132825
0.0130278
0.012769
0.0125086
0.0266485
0.0263881
0.0260479
0.0256341
0.0251976
0.0247385
0.0242695
0.0238138
0.0233465
0.0228848
0.0224521
0.0220294
0.0216024
0.0212092
0.0208485
0.0204947
0.0201438
0.019815
0.0195149
0.0192283
0.0189439
0.0186615
0.0183954
0.0181438
0.0178953
0.0176449
0.0173938
0.017146
0.0169038
0.0166636
0.0164208
0.016172
0.0159142
0.0156544
0.0153949
0.015129
0.0148533
0.0145702
0.0142822
0.0139919
0.0287051
0.0284551
0.0281273
0.0277274
0.0273041
0.0268574
0.0263991
0.0259518
0.025491
0.0250329
0.0246004
0.0241753
0.0237429
0.0233412
0.0229692
0.022601
0.0222361
0.0218903
0.0215707
0.0212619
0.0209558
0.0206499
0.0203571
0.0200815
0.0198108
0.0195363
0.0192599
0.0189862
0.01872
0.0184544
0.018185
0.0179109
0.017627
0.0173401
0.0170532
0.0167604
0.016457
0.0161455
0.0158285
0.0155083
0.0307546
0.0305148
0.0301992
0.0298132
0.029403
0.0289688
0.0285217
0.0280833
0.02763
0.0271769
0.0267465
0.0263209
0.0258856
0.0254777
0.0250956
0.0247179
0.0243409
0.0239807
0.0236439
0.0233152
0.0229851
0.0226577
0.0223435
0.0220448
0.0217504
0.0214539
0.0211537
0.0208552
0.020565
0.0202745
0.0199789
0.0196782
0.019369
0.0190556
0.0187415
0.0184217
0.0180907
0.0177509
0.0174048
0.0170548
0.0327974
0.0325679
0.0322644
0.031892
0.031495
0.0310733
0.0306376
0.0302085
0.0297633
0.0293163
0.0288891
0.0284646
0.0280283
0.0276165
0.0272277
0.0268415
0.0264543
0.0260815
0.0257298
0.0253838
0.0250335
0.0246843
0.0243499
0.0240295
0.0237125
0.0233941
0.0230708
0.0227484
0.0224346
0.0221197
0.0217988
0.0214728
0.0211376
0.0207977
0.0204568
0.0201101
0.0197516
0.0193835
0.0190085
0.0186289
0.0348343
0.034615
0.0343235
0.0339646
0.0335807
0.0331715
0.0327472
0.0323276
0.0318908
0.0314505
0.0310274
0.0306052
0.0301694
0.0297553
0.0293616
0.0289686
0.0285727
0.028189
0.0278242
0.0274629
0.0270951
0.0267266
0.0263726
0.0260314
0.0256926
0.0253526
0.0250071
0.0246616
0.0243245
0.0239858
0.0236402
0.0232882
0.0229285
0.0225632
0.0221959
0.0218226
0.0214368
0.0210408
0.0206372
0.0202281
0.0368658
0.0366564
0.0363768
0.0360315
0.0356607
0.0352637
0.0348507
0.0344408
0.0340127
0.0335795
0.0331612
0.032742
0.0323077
0.0318925
0.0314952
0.0310969
0.0306938
0.0303007
0.0299242
0.0295491
0.0291656
0.0287796
0.0284071
0.0280463
0.0276867
0.0273247
0.0269588
0.0265911
0.0262303
0.0258696
0.0255006
0.0251242
0.0247401
0.0243496
0.0239563
0.0235567
0.023144
0.0227204
0.0222884
0.0218502
0.038892
0.0386924
0.0384244
0.0380926
0.037736
0.0373502
0.0369483
0.0365481
0.0361289
0.0357031
0.0352901
0.0348745
0.0344425
0.0340272
0.0336275
0.0332248
0.0328157
0.0324143
0.0320274
0.03164
0.0312422
0.03084
0.0304492
0.0300711
0.0296924
0.0293102
0.0289242
0.0285354
0.0281524
0.0277696
0.0273777
0.0269777
0.0265697
0.0261544
0.0257355
0.0253097
0.0248706
0.0244199
0.0239602
0.0234933
0.0409131
0.0407229
0.0404663
0.0401473
0.0398034
0.0394298
0.0390396
0.0386496
0.0382393
0.0378212
0.0374138
0.0370024
0.0365735
0.0361589
0.0357575
0.0353514
0.0349372
0.0345286
0.0341322
0.0337336
0.0333228
0.0329061
0.0324991
0.032104
0.0317072
0.0313059
0.0309006
0.0304914
0.0300872
0.0296831
0.029269
0.0288461
0.0284149
0.0279753
0.0275312
0.0270789
0.0266144
0.0261376
0.0256507
0.0251557
0.0429289
0.042748
0.0425025
0.0421963
0.0418643
0.0415028
0.0411245
0.040746
0.0403438
0.0399334
0.0395321
0.0391255
0.0387002
0.038287
0.0378847
0.0374759
0.0370573
0.0366422
0.0362372
0.0358282
0.0354056
0.0349756
0.0345536
0.0341426
0.0337286
0.033309
0.0328849
0.0324565
0.0320321
0.0316072
0.031172
0.0307271
0.0302734
0.0298104
0.0293419
0.0288645
0.0283748
0.0278721
0.0273585
0.0268359
0.0449392
0.0447673
0.044533
0.0442403
0.0439189
0.043569
0.0432019
0.0428336
0.0424409
0.0420391
0.0416448
0.0412433
0.0408225
0.0404111
0.0400087
0.0395978
0.0391753
0.0387542
0.038341
0.0379222
0.0374886
0.0370463
0.0366106
0.0361847
0.0357545
0.0353174
0.0348743
0.0344284
0.0339848
0.0335392
0.0330848
0.0326189
0.0321433
0.0316576
0.0311657
0.0306641
0.0301497
0.0296217
0.029082
0.0285324
0.0469434
0.0467803
0.0465565
0.0462757
0.0459661
0.0456281
0.0452725
0.0449138
0.0445307
0.0441378
0.0437519
0.0433553
0.0429402
0.0425305
0.0421296
0.0417166
0.0412906
0.0408637
0.0404425
0.0400141
0.0395703
0.0391166
0.0386681
0.0382282
0.0377829
0.0373298
0.0368697
0.0364065
0.0359446
0.0354797
0.0350058
0.0345195
0.0340225
0.0335151
0.0330006
0.0324757
0.0319376
0.031385
0.0308198
0.0302438
0.0489413
0.0487869
0.0485735
0.0483039
0.0480059
0.0476799
0.0473367
0.0469866
0.0466127
0.0462284
0.0458497
0.0454589
0.0450489
0.0446421
0.0442426
0.0438307
0.0434026
0.0429697
0.0425406
0.0421018
0.041649
0.0411849
0.0407243
0.0402711
0.0398122
0.0393444
0.0388685
0.038389
0.0379096
0.0374264
0.0369335
0.0364273
0.0359088
0.0353811
0.0348453
0.0342981
0.0337369
0.0331605
0.0325706
0.031969
0.0509321
0.0507864
0.0505842
0.0503247
0.0500378
0.0497235
0.0493911
0.0490507
0.0486865
0.0483113
0.0479396
0.047555
0.0471499
0.0467464
0.0463477
0.0459354
0.0455057
0.0450702
0.0446348
0.0441864
0.043724
0.0432499
0.0427778
0.0423111
0.0418408
0.0413596
0.040869
0.040374
0.0398781
0.0393774
0.0388666
0.0383415
0.0378033
0.0372555
0.0366988
0.03613
0.0355466
0.034947
0.0343332
0.0337067
0.052915
0.0527779
0.0525852
0.0523367
0.0520613
0.0517595
0.0514366
0.0511059
0.0507517
0.0503869
0.0500216
0.0496441
0.0492433
0.0488441
0.0484456
0.0480323
0.0476001
0.0471605
0.046719
0.0462635
0.0457932
0.0453101
0.0448276
0.0443491
0.0438666
0.0433729
0.0428691
0.0423598
0.0418484
0.0413312
0.0408033
0.0402604
0.0397036
0.0391366
0.0385599
0.0379702
0.0373653
0.0367435
0.0361065
0.0354558
0.0548893
0.0547615
0.0545771
0.0543393
0.0540753
0.0537844
0.0534721
0.0531514
0.0528073
0.0524514
0.0520935
0.0517221
0.0513268
0.0509313
0.0505355
0.050122
0.0496864
0.049242
0.0487932
0.0483321
0.047855
0.0473642
0.0468724
0.046383
0.0458878
0.0453834
0.0448676
0.0443452
0.0438193
0.0432865
0.0427421
0.0421824
0.0416082
0.041023
0.0404272
0.0398176
0.039192
0.0385487
0.0378894
0.0372154
0.0568536
0.0567336
0.0565586
0.0563321
0.0560803
0.0557992
0.0554973
0.0551869
0.054854
0.054506
0.0541563
0.0537901
0.053401
0.053008
0.0526133
0.0521994
0.0517631
0.0513149
0.0508594
0.0503922
0.0499088
0.0494109
0.048911
0.0484121
0.0479063
0.0473912
0.046864
0.0463292
0.0457897
0.0452419
0.0446809
0.0441063
0.043516
0.0429136
0.0422996
0.0416709
0.0410256
0.0403617
0.0396809
0.0389846
0.0588075
0.058695
0.0585296
0.0583141
0.058073
0.0578027
0.0575116
0.0572114
0.0568881
0.0565489
0.0562062
0.0558461
0.0554624
0.055074
0.0546805
0.0542648
0.053826
0.0533729
0.0529138
0.0524418
0.0519531
0.0514493
0.0509422
0.0504349
0.0499199
0.0493949
0.0488571
0.0483109
0.0477588
0.0471973
0.0466216
0.0460321
0.0454262
0.0448075
0.0441761
0.0435293
0.042865
0.0421815
0.0414801
0.0407623
0.0607502
0.0606453
0.0604897
0.0602858
0.0600541
0.0597946
0.0595149
0.0592256
0.0589107
0.0585809
0.0582443
0.0578912
0.0575114
0.0571255
0.0567326
0.0563177
0.0558768
0.0554193
0.0549562
0.0544802
0.053987
0.0534781
0.0529648
0.0524502
0.051927
0.0513932
0.0508457
0.050289
0.0497253
0.0491511
0.0485621
0.0479585
0.0473379
0.0467036
0.0460558
0.0453917
0.0447094
0.0440071
0.0432861
0.0425477
0.0626809
0.0625833
0.062438
0.0622434
0.0620222
0.0617742
0.0615065
0.0612259
0.06092
0.0605985
0.0602688
0.059922
0.0595481
0.0591642
0.05877
0.0583544
0.0579097
0.0574508
0.0569853
0.0565062
0.0560094
0.0554964
0.054978
0.054457
0.0539267
0.053385
0.0528289
0.0522626
0.0516882
0.0511025
0.050501
0.0498843
0.0492498
0.0486009
0.0479376
0.0472572
0.0465578
0.0458376
0.045098
0.0443401
0.0645986
0.0645075
0.0643709
0.0641865
0.0639764
0.0637409
0.0634829
0.0632122
0.0629167
0.0626025
0.0622805
0.0619393
0.061569
0.0611856
0.0607914
0.0603722
0.0599271
0.0594674
0.0590003
0.058519
0.0580196
0.0575034
0.0569807
0.0564544
0.0559179
0.0553693
0.0548055
0.0542306
0.0536465
0.0530501
0.0524372
0.0518084
0.0511609
0.0504983
0.0498205
0.0491247
0.0484093
0.0476722
0.0469149
0.0461386
0.0665023
0.0664175
0.0662891
0.066115
0.0659158
0.0656912
0.0654442
0.0651843
0.0648972
0.0645916
0.0642747
0.0639387
0.0635707
0.0631893
0.0627939
0.0623738
0.0619285
0.0614686
0.0610006
0.0605179
0.0600167
0.0594982
0.0589723
0.0584416
0.0578998
0.0573452
0.0567746
0.0561922
0.0555993
0.0549932
0.0543697
0.0537297
0.0530702
0.0523949
0.0517036
0.0509935
0.050263
0.04951
0.0487361
0.0479425
0.0683914
0.0683125
0.0681923
0.0680287
0.0678411
0.0676261
0.0673902
0.067139
0.0668615
0.0665628
0.0662519
0.0659183
0.0655535
0.0651722
0.064777
0.0643574
0.0639129
0.0634536
0.0629855
0.0625023
0.0620002
0.0614802
0.0609519
0.0604177
0.0598716
0.059312
0.0587356
0.0581463
0.0575456
0.0569307
0.0562977
0.0556473
0.0549767
0.0542897
0.053586
0.0528629
0.0521181
0.0513501
0.0505605
0.0497508
0.070265
0.0701916
0.0700791
0.0699264
0.0697482
0.0695441
0.0693173
0.0690759
0.0688066
0.0685169
0.0682097
0.0678782
0.0675142
0.0671342
0.0667403
0.0663223
0.0658797
0.0654218
0.0649544
0.0644714
0.0639692
0.0634486
0.0629188
0.0623821
0.0618327
0.0612689
0.0606875
0.0600923
0.0594846
0.0588618
0.0582201
0.0575603
0.0568795
0.0561818
0.0554668
0.0547326
0.0539738
0.0531916
0.0523874
0.0515628
0.0721222
0.0720538
0.071948
0.0718043
0.0716366
0.0714416
0.0712251
0.070992
0.0707323
0.0704467
0.0701441
0.0698142
0.0694527
0.0690753
0.0686837
0.0682683
0.0678283
0.0673727
0.0669068
0.0664248
0.0659231
0.0654027
0.0648722
0.0643341
0.0637826
0.0632153
0.0626294
0.0620291
0.0614153
0.0607855
0.0601361
0.0594678
0.0587777
0.0580701
0.0573443
0.0565989
0.055828
0.0550329
0.0542155
0.0533775
0.0739624
0.0738985
0.0737986
0.0736623
0.0735033
0.0733185
0.0731103
0.0728873
0.072633
0.0723538
0.0720537
0.0717269
0.0713691
0.0709954
0.0706071
0.070195
0.0697585
0.0693058
0.0688421
0.0683618
0.0678614
0.0673418
0.0668115
0.0662728
0.0657211
0.0651502
0.0645606
0.0639558
0.0633368
0.0627009
0.0620447
0.0613689
0.0606702
0.0599535
0.0592179
0.0584619
0.0576798
0.0568732
0.056044
0.0551942
0.0757852
0.0757253
0.0756306
0.0755008
0.0753489
0.0751721
0.074973
0.0747564
0.07451
0.0742369
0.0739399
0.073617
0.073264
0.0728947
0.0725104
0.0721024
0.0716699
0.0712207
0.0707598
0.0702818
0.0697833
0.0692653
0.0687356
0.0681968
0.0676444
0.0670718
0.0664796
0.0658715
0.0652481
0.0646072
0.0639453
0.0632625
0.0625562
0.0618311
0.0610864
0.0603207
0.0595287
0.0587117
0.0578719
0.0570121
0.0775898
0.0775337
0.0774438
0.0773198
0.077174
0.0770038
0.0768116
0.0766012
0.0763613
0.0760943
0.0758026
0.075485
0.0751374
0.0747732
0.0743936
0.0739902
0.0735621
0.0731171
0.0726595
0.0721842
0.0716883
0.0711723
0.0706439
0.0701055
0.0695529
0.0689795
0.0683858
0.0677752
0.0671483
0.0665033
0.0658376
0.0651478
0.0644343
0.0637017
0.0629489
0.0621746
0.0613735
0.0605473
0.0596985
0.0588303
0.0793759
0.0793233
0.0792378
0.079119
0.0789788
0.0788145
0.0786283
0.0784237
0.0781899
0.077929
0.0776431
0.0773312
0.0769896
0.076631
0.0762564
0.0758579
0.0754348
0.0749942
0.0745404
0.0740685
0.0735755
0.0730622
0.0725357
0.0719984
0.0714463
0.070873
0.0702789
0.0696663
0.0690365
0.0683874
0.0677172
0.0670223
0.0663032
0.0655642
0.0648043
0.0640224
0.0632135
0.0623794
0.061523
0.0606483
0.0811425
0.0810933
0.0810119
0.0808982
0.0807632
0.0806044
0.0804238
0.0802248
0.0799968
0.0797419
0.0794619
0.0791559
0.0788205
0.0784677
0.0780985
0.0777053
0.0772874
0.0768516
0.076402
0.0759339
0.0754444
0.0749343
0.0744104
0.0738748
0.0733239
0.0727515
0.0721588
0.0715441
0.0709116
0.070259
0.0695835
0.0688852
0.0681618
0.0674177
0.0666514
0.0658632
0.0650477
0.0642069
0.0633443
0.0624651
0.0828891
0.082843
0.0827656
0.0826567
0.0825267
0.0823731
0.082198
0.0820042
0.0817819
0.0815329
0.0812589
0.0809589
0.0806299
0.080283
0.0799193
0.0795317
0.0791193
0.0786887
0.0782436
0.0777797
0.0772942
0.0767878
0.0762671
0.0757339
0.0751847
0.0746136
0.0740216
0.0734066
0.0727725
0.0721176
0.0714389
0.0707364
0.07001
0.0692617
0.0684904
0.0676966
0.0668752
0.0660289
0.0651617
0.06428
0.0846148
0.0845717
0.0844982
0.0843939
0.0842686
0.0841201
0.0839502
0.0837616
0.083545
0.0833019
0.0830337
0.0827398
0.0824171
0.0820763
0.0817184
0.0813364
0.0809298
0.0805046
0.0800644
0.0796051
0.079124
0.0786219
0.0781051
0.0775754
0.0770284
0.0764588
0.0758679
0.0752531
0.0746185
0.0739624
0.0732818
0.0725769
0.0718478
0.0710958
0.07032
0.0695214
0.0686952
0.0678445
0.0669741
0.066092
0.0863189
0.0862787
0.0862088
0.0861089
0.0859883
0.0858447
0.08568
0.0854965
0.0852853
0.085048
0.0847858
0.084498
0.0841817
0.0838471
0.0834949
0.0831189
0.0827182
0.0822986
0.0818636
0.0814092
0.0809331
0.0804358
0.0799236
0.0793991
0.078854
0.0782867
0.077697
0.077083
0.0764486
0.0757923
0.0751112
0.0744049
0.0736748
0.0729188
0.0721391
0.0713364
0.0705064
0.0696524
0.0687804
0.0679001
0.0880005
0.087963
0.0878966
0.087801
0.0876849
0.0875462
0.0873864
0.087208
0.0870023
0.0867708
0.0865145
0.0862327
0.0859229
0.0855945
0.0852483
0.0848782
0.0844837
0.08407
0.0836405
0.0831914
0.0827205
0.0822283
0.081721
0.0812008
0.0806595
0.0800966
0.079508
0.0788951
0.0782617
0.0776062
0.0769265
0.0762187
0.0754869
0.0747285
0.0739459
0.0731402
0.0723075
0.0714515
0.0705793
0.0697031
0.0896588
0.089624
0.089561
0.0894695
0.0893577
0.0892237
0.0890689
0.0888954
0.0886952
0.0884694
0.088219
0.0879434
0.08764
0.0873179
0.0869777
0.0866138
0.0862255
0.0858179
0.0853942
0.0849507
0.0844855
0.083999
0.0834969
0.0829812
0.0824438
0.0818845
0.0812986
0.080688
0.0800565
0.0794028
0.0787238
0.0780161
0.0772833
0.0765235
0.0757393
0.0749317
0.0740972
0.0732403
0.0723696
0.0714998
0.0912932
0.0912608
0.091201
0.0911135
0.091006
0.0908766
0.0907266
0.090558
0.0903632
0.0901433
0.0898987
0.0896292
0.0893323
0.0890165
0.0886824
0.0883247
0.0879428
0.0875416
0.0871239
0.0866865
0.0862273
0.085747
0.0852509
0.0847399
0.0842068
0.0836511
0.0830685
0.0824608
0.0818321
0.0811818
0.0805034
0.0797966
0.079063
0.0783022
0.077518
0.0767095
0.0758743
0.0750177
0.0741499
0.0732887
0.0929028
0.0928728
0.0928161
0.0927325
0.0926291
0.0925041
0.0923589
0.0921951
0.0920057
0.0917916
0.091553
0.0912896
0.0909991
0.0906895
0.0903616
0.0900103
0.089635
0.0892403
0.0888289
0.0883978
0.0879451
0.0874717
0.0869833
0.0864766
0.085948
0.0853961
0.084817
0.0842126
0.0835867
0.0829391
0.0822626
0.0815573
0.0808238
0.0800643
0.0792821
0.0784728
0.0776375
0.0767822
0.0759187
0.0750684
0.094487
0.0944593
0.0944055
0.0943256
0.0942262
0.0941056
0.0939649
0.093806
0.093622
0.0934137
0.0931812
0.0929238
0.0926396
0.0923363
0.0920146
0.0916697
0.0913011
0.0909132
0.0905084
0.090084
0.0896382
0.0891718
0.08869
0.0881891
0.0876671
0.0871185
0.086543
0.0859423
0.0853198
0.0846751
0.0840012
0.083298
0.0825663
0.0818083
0.0810274
0.0802191
0.0793851
0.0785324
0.0776747
0.0768373
0.0960451
0.0960195
0.0959686
0.0958922
0.0957967
0.0956803
0.0955442
0.09539
0.0952114
0.0950091
0.094783
0.0945314
0.0942533
0.0939562
0.0936406
0.0933023
0.0929406
0.0925596
0.0921617
0.0917443
0.0913059
0.0908471
0.0903718
0.0898768
0.0893602
0.0888164
0.0882455
0.0876491
0.0870306
0.0863893
0.0857185
0.0850182
0.0842889
0.083533
0.0827541
0.0819477
0.0811159
0.0802669
0.0794164
0.078594
0.0975766
0.097553
0.0975048
0.0974318
0.09734
0.0972277
0.097096
0.0969465
0.0967731
0.0965769
0.0963583
0.0961114
0.0958391
0.0955482
0.0952391
0.0949074
0.0945527
0.0941789
0.0937882
0.0933782
0.0929478
0.092498
0.0920284
0.0915394
0.0910281
0.0904893
0.0899234
0.0893321
0.0887185
0.0880811
0.0874138
0.0867168
0.0859906
0.0852376
0.0844613
0.0836575
0.0828289
0.0819846
0.0811424
0.0803368
0.0990808
0.0990591
0.0990135
0.0989438
0.0988555
0.0987472
0.0986198
0.0984748
0.0983065
0.0981158
0.0979032
0.0976623
0.0973963
0.0971119
0.0968092
0.0964844
0.0961369
0.0957704
0.0953872
0.094985
0.0945628
0.0941207
0.0936581
0.0931769
0.0926701
0.0921364
0.0915761
0.0909905
0.0903835
0.0897495
0.0890859
0.0883927
0.0876704
0.086921
0.0861479
0.0853476
0.084523
0.0836843
0.0828515
0.0820643
0.100557
0.100537
0.100494
0.100428
0.100343
0.100238
0.100115
0.0999745
0.0998111
0.0996257
0.0994188
0.099184
0.0989246
0.0986467
0.0983507
0.0980328
0.0976927
0.0973337
0.0969581
0.096564
0.0961514
0.0957159
0.0952604
0.0947854
0.0942843
0.0937566
0.0932026
0.0926228
0.0920213
0.0913922
0.0907334
0.0900448
0.089327
0.088582
0.0878131
0.087017
0.0861973
0.0853649
0.0845424
0.0837748
0.102006
0.101987
0.101947
0.101883
0.101802
0.101701
0.101582
0.101445
0.101287
0.101106
0.100905
0.100676
0.100424
0.100152
0.099863
0.0995522
0.0992195
0.0988682
0.0985004
0.0981143
0.0977099
0.0972822
0.0968353
0.0963655
0.0958702
0.0953489
0.0948029
0.0942284
0.0936323
0.0930086
0.0923553
0.0916721
0.0909596
0.0902195
0.0894558
0.0886649
0.0878508
0.0870255
0.086214
0.0854672
0.103425
0.103409
0.10337
0.10331
0.103231
0.103134
0.103019
0.102887
0.102733
0.102558
0.102362
0.102139
0.101893
0.101628
0.101346
0.101042
0.100717
0.100374
0.100014
0.0996362
0.0992394
0.0988196
0.0983795
0.0979158
0.0974266
0.0969119
0.096373
0.0958055
0.0952156
0.094598
0.0939507
0.0932738
0.0925674
0.0918333
0.0910754
0.0902904
0.0894826
0.0886651
0.0878652
0.0871399
0.104816
0.104801
0.104765
0.104707
0.104632
0.104538
0.104427
0.104298
0.104149
0.103979
0.103789
0.103572
0.103333
0.103075
0.102799
0.102502
0.102185
0.101849
0.101498
0.10113
0.10074
0.100328
0.0998938
0.099436
0.0989532
0.0984452
0.0979135
0.0973545
0.0967706
0.0961595
0.095519
0.094849
0.0941496
0.0934225
0.0926712
0.0918929
0.0910921
0.0902829
0.0894951
0.0887917
0.106178
0.106164
0.10613
0.106075
0.106002
0.105912
0.105804
0.10568
0.105536
0.105371
0.105186
0.104975
0.104742
0.104491
0.104222
0.103932
0.103623
0.103296
0.102952
0.102592
0.102209
0.101805
0.101377
0.100925
0.100449
0.0999483
0.0994235
0.0988723
0.098296
0.0976923
0.0970595
0.0963972
0.0957053
0.0949866
0.0942429
0.0934717
0.0926785
0.091878
0.0911026
0.0904214
0.10751
0.107498
0.107465
0.107413
0.107343
0.107256
0.107152
0.107032
0.106892
0.106732
0.106553
0.106349
0.106122
0.105877
0.105614
0.105332
0.10503
0.104712
0.104378
0.104023
0.103649
0.10325
0.102828
0.102384
0.101915
0.101421
0.100902
0.10036
0.0997916
0.0991963
0.0985719
0.0979181
0.097235
0.0965265
0.09579
0.0950264
0.0942411
0.0934497
0.0926869
0.092028
0.108813
0.108802
0.108771
0.108721
0.108654
0.10857
0.10847
0.108354
0.108218
0.108063
0.107889
0.107692
0.107471
0.107232
0.106976
0.106701
0.106407
0.106098
0.10577
0.105422
0.105054
0.104662
0.104248
0.103811
0.10335
0.102864
0.102353
0.101818
0.101258
0.100672
0.100056
0.0994112
0.0987376
0.0980385
0.0973109
0.0965558
0.0957792
0.0949974
0.0942473
0.0936105
0.110086
0.110076
0.110047
0.109999
0.109935
0.109854
0.109757
0.109645
0.109513
0.109363
0.109195
0.109005
0.108789
0.108556
0.108307
0.108039
0.107753
0.107451
0.107129
0.106788
0.106426
0.106042
0.105636
0.105208
0.104755
0.104277
0.103774
0.103247
0.102696
0.102118
0.101512
0.100877
0.100213
0.0995237
0.0988056
0.0980597
0.0972924
0.0965204
0.095783
0.0951681
0.111329
0.11132
0.111293
0.111247
0.111186
0.111108
0.111014
0.110905
0.110778
0.110633
0.11047
0.110286
0.110076
0.109849
0.109606
0.109345
0.109068
0.108772
0.108457
0.108121
0.107766
0.107391
0.106993
0.106573
0.106129
0.10566
0.105166
0.104647
0.104104
0.103536
0.10294
0.102314
0.101661
0.100982
0.100274
0.099538
0.0987802
0.0980184
0.0972936
0.0966999
0.112543
0.112535
0.112509
0.112465
0.112406
0.112331
0.112241
0.112135
0.112012
0.111872
0.111714
0.111535
0.111332
0.111111
0.110875
0.11062
0.11035
0.11006
0.109752
0.109424
0.109076
0.108709
0.108319
0.107908
0.107473
0.107014
0.106529
0.106019
0.105485
0.104926
0.104339
0.103725
0.103083
0.102415
0.101717
0.10099
0.100243
0.099491
0.0987786
0.0982053
0.113727
0.113719
0.113695
0.113653
0.113597
0.113525
0.113437
0.113335
0.113216
0.11308
0.112927
0.112754
0.112557
0.112343
0.112112
0.111864
0.1116
0.111317
0.111017
0.110696
0.110356
0.109996
0.109615
0.109213
0.108787
0.108337
0.107862
0.107362
0.106838
0.106288
0.105712
0.105108
0.104479
0.103821
0.103133
0.102417
0.101679
0.100938
0.100237
0.0996839
0.114881
0.114874
0.114851
0.114812
0.114757
0.114688
0.114604
0.114505
0.114389
0.114258
0.11411
0.113942
0.113751
0.113544
0.113319
0.113077
0.112818
0.112543
0.11225
0.111938
0.111605
0.111253
0.11088
0.110487
0.11007
0.10963
0.109164
0.108675
0.108161
0.107622
0.107056
0.106464
0.105846
0.105198
0.104521
0.103816
0.103089
0.102358
0.10167
0.101135
0.116006
0.116
0.115978
0.11594
0.115888
0.115821
0.11574
0.115644
0.115533
0.115405
0.115262
0.1151
0.114916
0.114714
0.114496
0.11426
0.114007
0.113739
0.113453
0.113148
0.112823
0.112478
0.112115
0.111731
0.111323
0.110893
0.110438
0.109958
0.109455
0.108926
0.108372
0.107791
0.107184
0.106548
0.105882
0.105188
0.104472
0.103751
0.103075
0.102558
0.117101
0.117096
0.117075
0.117039
0.116989
0.116925
0.116846
0.116754
0.116646
0.116523
0.116384
0.116228
0.116052
0.115855
0.115642
0.115412
0.115166
0.114905
0.114626
0.114329
0.114011
0.113674
0.11332
0.112944
0.112547
0.112126
0.111681
0.111212
0.110719
0.110202
0.109658
0.109089
0.108495
0.10787
0.107215
0.106532
0.105827
0.105118
0.104452
0.103952
0.118167
0.118163
0.118143
0.118109
0.118061
0.117999
0.117923
0.117834
0.117729
0.11761
0.117476
0.117326
0.117155
0.116965
0.116758
0.116535
0.116295
0.11604
0.115769
0.115479
0.11517
0.114841
0.114494
0.114128
0.11374
0.113329
0.112894
0.112436
0.111954
0.111447
0.110916
0.11036
0.109776
0.109163
0.10852
0.107849
0.107155
0.106457
0.105802
0.105318
0.119204
0.119201
0.119182
0.119149
0.119103
0.119044
0.11897
0.118884
0.118783
0.118668
0.118539
0.118393
0.118229
0.118044
0.117844
0.117627
0.117394
0.117144
0.116881
0.116599
0.116298
0.115978
0.115639
0.115282
0.114903
0.114502
0.114077
0.11363
0.113159
0.112664
0.112144
0.1116
0.111028
0.110427
0.109796
0.109137
0.108455
0.107767
0.107124
0.106654
0.120213
0.12021
0.120193
0.120161
0.120117
0.12006
0.119989
0.119906
0.119808
0.119697
0.119572
0.119431
0.119272
0.119095
0.118901
0.11869
0.118463
0.118221
0.117964
0.11769
0.117397
0.117085
0.116754
0.116406
0.116037
0.115645
0.115231
0.114794
0.114334
0.11385
0.113342
0.112811
0.112251
0.111662
0.111043
0.110396
0.109726
0.10905
0.108417
0.107961
0.121194
0.121191
0.121175
0.121145
0.121102
0.121047
0.120979
0.120899
0.120804
0.120697
0.120576
0.12044
0.120287
0.120118
0.119929
0.119724
0.119504
0.119268
0.119018
0.118752
0.118467
0.118163
0.117841
0.1175
0.117141
0.116759
0.116356
0.115929
0.11548
0.115008
0.114511
0.113992
0.113444
0.112868
0.112262
0.111627
0.110969
0.110304
0.109681
0.109238
0.122146
0.122144
0.122129
0.1221
0.122059
0.122006
0.121941
0.121863
0.121772
0.121668
0.121551
0.12142
0.121273
0.121109
0.120927
0.120729
0.120515
0.120286
0.120043
0.119784
0.119508
0.119212
0.118899
0.118567
0.118216
0.117844
0.117451
0.117035
0.116597
0.116136
0.115652
0.115145
0.114609
0.114045
0.113451
0.112829
0.112183
0.111529
0.110916
0.110484
0.123072
0.12307
0.123055
0.123028
0.122989
0.122938
0.122875
0.1228
0.122712
0.122611
0.122498
0.122371
0.12223
0.122072
0.121896
0.121705
0.121498
0.121276
0.121039
0.120788
0.12052
0.120233
0.119928
0.119605
0.119263
0.1189
0.118517
0.118112
0.117685
0.117235
0.116765
0.116269
0.115745
0.115193
0.114611
0.114002
0.113368
0.112725
0.112121
0.1117
0.12397
0.123968
0.123954
0.123928
0.123891
0.123842
0.123781
0.123709
0.123624
0.123527
0.123418
0.123295
0.123159
0.123007
0.122839
0.122654
0.122453
0.122238
0.122008
0.121764
0.121503
0.121225
0.120929
0.120615
0.120282
0.119929
0.119555
0.11916
0.118744
0.118306
0.117848
0.117363
0.116851
0.116311
0.115742
0.115144
0.114522
0.11389
0.113296
0.112883
0.124841
0.12484
0.124827
0.124802
0.124766
0.124719
0.124661
0.124591
0.124509
0.124416
0.12431
0.124192
0.12406
0.123915
0.123754
0.123575
0.123381
0.123172
0.12295
0.122712
0.122459
0.122189
0.121902
0.121596
0.121273
0.120929
0.120565
0.12018
0.119775
0.119349
0.118902
0.118428
0.117927
0.117399
0.116841
0.116256
0.115645
0.115024
0.114438
0.114033
0.125687
0.125685
0.125673
0.125649
0.125615
0.12557
0.125514
0.125447
0.125368
0.125278
0.125176
0.125062
0.124935
0.124795
0.124641
0.124469
0.124281
0.124079
0.123863
0.123633
0.123387
0.123125
0.122847
0.12255
0.122236
0.121902
0.121547