/*--------------------------------*- C++ -*----------------------------------*\
| =========                 |                                                 |
| \\      /  F ield         | OpenFOAM: The Open Source CFD Toolbox           |
|  \\    /   O peration     | Version:  3.0.1                                 |
|   \\  /    A nd           | Web:      www.OpenFOAM.org                      |
|    \\/     M anipulation  |                                                 |
\*---------------------------------------------------------------------------*/
FoamFile
{
    version     2.0;
    format      ascii;
    class       volScalarField;
    location    "500";
    object      p;
}
// * * * * * * * * * * * * * * * * * * * * * * * * * * * * * * * * * * * * * //

dimensions      [0 2 -2 0 0 0 0];

internalField   nonuniform List<scalar> 
58000
(
0.532041
0.370059
0.202959
0.0639562
-0.0404673
-0.11728
-0.175872
-0.21645
-0.247639
-0.271446
-0.287061
-0.297993
-0.30676
-0.312807
-0.31608
-0.318368
-0.320185
-0.321157
-0.320906
-0.320185
-0.319406
-0.318485
-0.31712
-0.315149
-0.31309
-0.311083
-0.308973
-0.306694
-0.304091
-0.301294
-0.298565
-0.295749
-0.292722
-0.289242
-0.285562
-0.28058
-0.275111
-0.270384
-0.26757
-0.265886
0.476839
0.431399
0.378226
0.309791
0.236129
0.159633
0.088153
0.0238354
-0.0348274
-0.0837382
-0.123651
-0.157423
-0.185498
-0.206452
-0.22305
-0.236628
-0.247425
-0.255426
-0.261446
-0.266221
-0.269857
-0.272495
-0.274105
-0.275147
-0.275741
-0.27586
-0.275545
-0.274827
-0.273803
-0.272689
-0.271395
-0.269945
-0.268417
-0.266988
-0.265327
-0.26265
-0.259209
-0.255953
-0.253705
-0.253053
0.36532
0.336501
0.302664
0.260933
0.211664
0.160531
0.105979
0.0549805
0.00613512
-0.0395099
-0.0782778
-0.111717
-0.141636
-0.166476
-0.185749
-0.201927
-0.215717
-0.226902
-0.235401
-0.242042
-0.247493
-0.251922
-0.255306
-0.257619
-0.259206
-0.260296
-0.26095
-0.261198
-0.261041
-0.26048
-0.259641
-0.25858
-0.257294
-0.255795
-0.254035
-0.251918
-0.249525
-0.247133
-0.244988
-0.243126
0.315425
0.301315
0.283994
0.260534
0.230201
0.195548
0.156054
0.115637
0.0739976
0.0328489
-0.00476711
-0.0395597
-0.0721003
-0.100252
-0.123689
-0.144367
-0.162516
-0.177636
-0.189782
-0.199892
-0.208508
-0.215721
-0.221441
-0.225873
-0.229439
-0.23231
-0.234527
-0.236114
-0.237121
-0.237698
-0.237932
-0.237849
-0.237465
-0.236802
-0.235911
-0.234819
-0.233492
-0.232005
-0.230484
-0.229015
0.263642
0.253968
0.243025
0.228845
0.209525
0.187028
0.159328
0.129588
0.0976489
0.0639609
0.0315533
0.000413017
-0.0300001
-0.0578951
-0.0818723
-0.103723
-0.12358
-0.140831
-0.15513
-0.167299
-0.177958
-0.187163
-0.194794
-0.200886
-0.205942
-0.210199
-0.213706
-0.216493
-0.218581
-0.220076
-0.221148
-0.221836
-0.222157
-0.222143
-0.221825
-0.221254
-0.220452
-0.219446
-0.21828
-0.216981
0.228097
0.22133
0.213955
0.204575
0.191549
0.176247
0.15663
0.134746
0.110512
0.0838322
0.0570172
0.0302807
0.00329472
-0.0225492
-0.0455941
-0.067282
-0.0875541
-0.105725
-0.121273
-0.134874
-0.147076
-0.157851
-0.167013
-0.174552
-0.180992
-0.186565
-0.191303
-0.195222
-0.198329
-0.200765
-0.202721
-0.204231
-0.205317
-0.206004
-0.206331
-0.206383
-0.206186
-0.205743
-0.205074
-0.20421
0.198255
0.193047
0.187616
0.18096
0.17166
0.160841
0.146577
0.130314
0.111985
0.0911041
0.0694151
0.0472056
0.0241888
0.0012623
-0.0197796
-0.040112
-0.0595989
-0.0775953
-0.0934243
-0.107584
-0.120556
-0.132248
-0.142444
-0.151022
-0.158495
-0.165091
-0.170825
-0.175699
-0.179699
-0.182952
-0.185681
-0.187919
-0.189687
-0.191011
-0.191921
-0.192509
-0.192813
-0.192833
-0.19258
-0.192075
0.174349
0.17013
0.165859
0.160787
0.153761
0.145707
0.134968
0.122579
0.108493
0.0920803
0.0746092
0.0563543
0.0370682
0.0172455
-0.00140501
-0.019837
-0.0378766
-0.054966
-0.0703764
-0.0844493
-0.0975862
-0.109641
-0.120378
-0.129598
-0.137772
-0.145105
-0.15159
-0.157212
-0.161936
-0.165879
-0.169275
-0.172152
-0.174527
-0.176423
-0.177865
-0.178949
-0.179724
-0.180184
-0.180341
-0.180214
0.154445
0.150888
0.14736
0.143285
0.137716
0.131438
0.123051
0.113342
0.102279
0.0892072
0.0750539
0.0600546
0.0439875
0.0270563
0.0108054
-0.00555041
-0.021841
-0.037618
-0.0521582
-0.0656767
-0.0785048
-0.0904662
-0.10133
-0.11083
-0.11938
-0.127159
-0.13414
-0.140292
-0.145561
-0.150043
-0.153973
-0.157371
-0.160254
-0.162638
-0.16454
-0.166056
-0.167241
-0.168091
-0.168612
-0.168826
0.137742
0.134655
0.131632
0.128217
0.123627
0.118534
0.111763
0.103934
0.0950298
0.0844347
0.072835
0.060426
0.0470116
0.0326061
0.018554
0.00420403
-0.0102911
-0.0245896
-0.0380175
-0.0506995
-0.0629081
-0.0744537
-0.0851226
-0.0946052
-0.103258
-0.111229
-0.118475
-0.124951
-0.130587
-0.135455
-0.139784
-0.143587
-0.146874
-0.149656
-0.15194
-0.153823
-0.155362
-0.156551
-0.157397
-0.157917
0.12353
0.120796
0.118136
0.115182
0.111281
0.107012
0.101386
0.0949069
0.0875688
0.0788191
0.0691778
0.0588038
0.0475263
0.0352479
0.0231165
0.0105874
-0.00220951
-0.0150238
-0.0272519
-0.0389597
-0.0503718
-0.0612972
-0.071547
-0.0807921
-0.0893319
-0.0972873
-0.104602
-0.111221
-0.117063
-0.122176
-0.126775
-0.130867
-0.134455
-0.137544
-0.140133
-0.142314
-0.144145
-0.145619
-0.146742
-0.147527
0.11132
0.108862
0.106475
0.10386
0.100464
0.0967901
0.0920031
0.0865193
0.0803418
0.072985
0.0648525
0.0560747
0.0465057
0.0359873
0.0254897
0.0145543
0.00328944
-0.00812739
-0.0191688
-0.0298638
-0.0403994
-0.0505939
-0.0602854
-0.0691417
-0.0774123
-0.0851942
-0.0924222
-0.0990356
-0.104947
-0.11018
-0.114935
-0.11921
-0.123003
-0.126313
-0.129132
-0.131544
-0.133606
-0.135311
-0.136664
-0.137672
0.100737
0.0985018
0.0963306
0.0939742
0.0909642
0.0877362
0.0835822
0.0788526
0.0735548
0.0672677
0.0603108
0.0527918
0.0445876
0.0355143
0.0263889
0.016823
0.0069048
-0.0032439
-0.0131688
-0.0228758
-0.0325234
-0.0419447
-0.0510032
-0.0593769
-0.0672736
-0.0747711
-0.0817991
-0.0882929
-0.0941625
-0.0994133
-0.104225
-0.108591
-0.112502
-0.115955
-0.118934
-0.121514
-0.12375
-0.125635
-0.127171
-0.128361
0.0914963
0.0894459
0.0874505
0.0852999
0.0825937
0.0797119
0.0760497
0.071906
0.0672903
0.0618394
0.0558117
0.0492967
0.04219
0.0343027
0.026324
0.0179228
0.00917064
0.000148067
-0.00875738
-0.0175383
-0.0263286
-0.0349784
-0.0433774
-0.0512216
-0.0586826
-0.0658231
-0.072572
-0.0788631
-0.0846054
-0.0897902
-0.0945787
-0.0989568
-0.102914
-0.106441
-0.109517
-0.112208
-0.114567
-0.116583
-0.118258
-0.119589
0.0833745
0.0814817
0.0796337
0.0776521
0.0751924
0.0725874
0.0693173
0.0656396
0.0615648
0.0567799
0.0514973
0.0457922
0.0395764
0.0326668
0.025646
0.0182312
0.0104808
0.00244649
-0.00554308
-0.0134749
-0.0214631
-0.0293739
-0.0371193
-0.0444197
-0.0514156
-0.0581569
-0.0645749
-0.0706049
-0.0761577
-0.0812128
-0.0859142
-0.0902433
-0.0941857
-0.0977291
-0.100848
-0.103601
-0.106035
-0.108139
-0.109913
-0.111349
0.0761963
0.07444
0.0727186
0.0708795
0.0686248
0.0662468
0.0632968
0.059998
0.056361
0.0521159
0.0474399
0.0423966
0.0369116
0.0308132
0.0245958
0.0180169
0.0111253
0.00395203
-0.00322444
-0.010389
-0.0176405
-0.024861
-0.0319795
-0.0387418
-0.045265
-0.0515885
-0.0576469
-0.0633789
-0.068699
-0.0735784
-0.0781446
-0.0823761
-0.0862554
-0.0897677
-0.0928844
-0.0956558
-0.0981248
-0.100279
-0.102116
-0.103624
0.0698199
0.0681836
0.0665732
0.0648572
0.0627767
0.0605894
0.0579059
0.0549212
0.0516453
0.047845
0.0436701
0.0391747
0.0342957
0.0288759
0.0233364
0.0174688
0.0113138
0.00488852
-0.00157083
-0.00804881
-0.0146316
-0.0212159
-0.0277449
-0.0339894
-0.0400477
-0.0459511
-0.0516382
-0.0570524
-0.0621126
-0.0667847
-0.0711814
-0.075279
-0.079058
-0.0825016
-0.0855794
-0.088334
-0.0908036
-0.0929747
-0.0948441
-0.0963939
0.0641306
0.0626012
0.0610895
0.0594818
0.057552
0.0555282
0.0530706
0.0503508
0.0473778
0.0439498
0.0401946
0.0361584
0.0317878
0.0269404
0.021977
0.0167174
0.0111962
0.0054209
-0.00040743
-0.00627409
-0.0122544
-0.0182581
-0.02424
-0.029995
-0.0356062
-0.0410986
-0.0464152
-0.0515041
-0.05629
-0.0607353
-0.0649391
-0.068877
-0.0725281
-0.0758742
-0.0788838
-0.0815927
-0.0840345
-0.0861952
-0.0880702
-0.0896373
0.0590342
0.0576011
0.0561784
0.0546674
0.0528701
0.0509885
0.0487256
0.0462326
0.0435176
0.0404054
0.0370061
0.0333594
0.0294198
0.0250597
0.0205894
0.0158526
0.0108789
0.00566969
0.000396608
-0.00492678
-0.0103664
-0.0158436
-0.0213227
-0.0266209
-0.0318086
-0.0369064
-0.0418616
-0.0466268
-0.051133
-0.0553413
-0.059338
-0.0630988
-0.0666023
-0.0698293
-0.0727483
-0.0753886
-0.0777799
-0.0799076
-0.0817661
-0.0833293
0.054453
0.0531073
0.0517656
0.050342
0.0486626
0.0469067
0.0448137
0.0425174
0.040025
0.0371841
0.0340902
0.0307775
0.0272072
0.0232653
0.0192201
0.0149356
0.0104373
0.00572261
0.00093878
-0.00390196
-0.00885734
-0.013859
-0.0188788
-0.0237542
-0.0285453
-0.0332687
-0.0378768
-0.0423262
-0.0465543
-0.0505218
-0.0543042
-0.0578775
-0.0612203
-0.0643132
-0.0671249
-0.0696795
-0.0720025
-0.0740793
-0.0759032
-0.077445
0.0503221
0.0490561
0.0477889
0.046445
0.0448714
0.0432279
0.041285
0.0391613
0.0368633
0.0342579
0.0314288
0.0284053
0.0251543
0.0215745
0.0178985
0.0140077
0.00992432
0.00564339
0.00129168
-0.00311985
-0.00764183
-0.0122147
-0.0168162
-0.0213024
-0.0257245
-0.0300964
-0.0343747
-0.0385203
-0.0424766
-0.046205
-0.0497713
-0.0531523
-0.0563268
-0.0592756
-0.0619684
-0.0644245
-0.0666661
-0.068678
-0.0704529
-0.0719591
0.0465865
0.0453938
0.0441954
0.0429249
0.0414473
0.0399051
0.0380959
0.0361253
0.0339988
0.0316001
0.0290026
0.0262318
0.0232593
0.0199952
0.0166422
0.0130963
0.009377
0.00547813
0.00150925
-0.00251983
-0.00665356
-0.0108399
-0.0150614
-0.0191904
-0.023271
-0.0273149
-0.0312827
-0.0351392
-0.0388334
-0.042328
-0.0456803
-0.0488683
-0.0518713
-0.0546705
-0.0572367
-0.0595856
-0.0617357
-0.0636723
-0.0653871
-0.0668467
0.0431998
0.0420749
0.0409402
0.0397376
0.0383478
0.0368979
0.035209
0.0333751
0.0314012
0.0291854
0.0267923
0.024244
0.0215163
0.0185295
0.0154609
0.012219
0.00882094
0.0052601
0.00163154
-0.00205594
-0.00584136
-0.00967925
-0.0135557
-0.0173578
-0.0211234
-0.0248626
-0.0285398
-0.0321233
-0.035567
-0.0388357
-0.0419794
-0.0449767
-0.0478081
-0.0504554
-0.0528908
-0.0551268
-0.0571789
-0.0590325
-0.0606791
-0.0620837
0.0401223
0.0390601
0.0379849
0.0368455
0.0355363
0.034171
0.0325911
0.0308804
0.0290434
0.0269906
0.0247792
0.0224286
0.0199176
0.017176
0.0143592
0.0113867
0.0082737
0.00501328
0.00168826
-0.00169336
-0.0051658
-0.00868915
-0.0122525
-0.0157557
-0.0192316
-0.0226886
-0.026095
-0.029422
-0.0326282
-0.0356805
-0.0386223
-0.0414338
-0.0440961
-0.046592
-0.0488951
-0.0510151
-0.0529651
-0.0547308
-0.0563033
-0.0576469
0.0373199
0.036316
0.0352965
0.0342161
0.0329813
0.031694
0.0302133
0.0286144
0.0269011
0.0249947
0.022946
0.0207719
0.0184542
0.0159307
0.013338
0.0106055
0.00774647
0.00475431
0.00170125
-0.00140561
-0.00459624
-0.00783536
-0.0111144
-0.0143445
-0.0175542
-0.0207506
-0.0239053
-0.0269923
-0.0299745
-0.0328209
-0.0355694
-0.0382013
-0.0406988
-0.0430458
-0.0452172
-0.0472204
-0.0490663
-0.0507412
-0.0522359
-0.0535142
0.0347629
0.0338135
0.0328461
0.0318211
0.0306555
0.0294404
0.0280506
0.0265536
0.0249526
0.0231783
0.0212761
0.0192607
0.0171162
0.0147879
0.0123961
0.00987828
0.0072466
0.00449476
0.00168617
-0.001173
-0.00410912
-0.00709092
-0.0101115
-0.0130922
-0.0160576
-0.0190136
-0.0219348
-0.024798
-0.0275698
-0.0302214
-0.0327859
-0.0352456
-0.037584
-0.0397859
-0.0418277
-0.0437149
-0.0454566
-0.0470394
-0.0484542
-0.0496648
0.0324259
0.0315273
0.0306091
0.0296362
0.0285348
0.0273868
0.0260808
0.0246771
0.0231787
0.0215244
0.0197548
0.0178826
0.0158943
0.0137415
0.0115305
0.00920581
0.00677852
0.00424281
0.00165452
-0.000980869
-0.00368657
-0.00643492
-0.00922023
-0.0119728
-0.0147139
-0.0174484
-0.0201536
-0.0228086
-0.0253834
-0.0278515
-0.0302415
-0.0325371
-0.034723
-0.0367846
-0.0387002
-0.0404736
-0.0421121
-0.043603
-0.0449374
-0.0460791
0.0302863
0.0294354
0.0285635
0.0276397
0.0265984
0.025513
0.0242842
0.0229665
0.0215622
0.0200174
0.0183683
0.0166262
0.0147794
0.012785
0.0107372
0.008587
0.00634427
0.00400375
0.00161467
-0.000818025
-0.00331471
-0.00585085
-0.00842172
-0.0109655
-0.0135007
-0.0160312
-0.0185366
-0.0209982
-0.023389
-0.0256846
-0.0279101
-0.0300501
-0.0320904
-0.0340175
-0.035811
-0.0374736
-0.0390112
-0.0404116
-0.041666
-0.0427388
0.0283246
0.0275184
0.0266902
0.0258127
0.0248277
0.0238009
0.0226439
0.0214055
0.0200878
0.0186432
0.0171042
0.0154807
0.0137625
0.0119119
0.0100123
0.00802013
0.00594451
0.00378083
0.0015725
-0.00067603
-0.00298268
-0.00532559
-0.00770077
-0.0100533
-0.0123992
-0.0147418
-0.0170626
-0.0193447
-0.021564
-0.0236981
-0.0257687
-0.0277619
-0.029664
-0.0314627
-0.033139
-0.0346946
-0.0361341
-0.0374461
-0.038622
-0.0396267
0.0265234
0.0257591
0.0249723
0.0241387
0.0232065
0.0222346
0.0211443
0.0199794
0.0187418
0.0173894
0.0159513
0.0144363
0.0128355
0.0111157
0.00935095
0.00750267
0.00557907
0.00357605
0.00153209
-0.000548734
-0.00268221
-0.00484881
-0.00704511
-0.00922222
-0.0113942
-0.0135637
-0.0157138
-0.0178295
-0.0198892
-0.0218723
-0.0237977
-0.0256524
-0.0274239
-0.0291005
-0.0306649
-0.0321178
-0.0334628
-0.0346893
-0.0357887
-0.0367267
0.0248673
0.0241427
0.023395
0.0226029
0.0217203
0.0208001
0.0197719
0.0186754
0.017512
0.0162446
0.0148993
0.0134839
0.0119907
0.0103904
0.00874882
0.00703181
0.00524683
0.00339024
0.00149622
-0.000431535
-0.00240688
-0.00441232
-0.00644487
-0.00846098
-0.0104729
-0.0124827
-0.0144753
-0.0164369
-0.0183481
-0.0201902
-0.0219796
-0.0237042
-0.0253525
-0.0269136
-0.0283716
-0.0297265
-0.030981
-0.0321251
-0.0331506
-0.0340241
0.023343
0.0226556
0.0219451
0.0211924
0.0203565
0.0194848
0.0185148
0.017482
0.0163875
0.0151986
0.0139389
0.0126153
0.0112209
0.00973015
0.00820151
0.00660464
0.00494636
0.00322352
0.00146657
-0.000321148
-0.00215178
-0.00400966
-0.00589207
-0.00776023
-0.00962483
-0.0114874
-0.0133343
-0.0151532
-0.0169264
-0.0186371
-0.0202993
-0.021902
-0.0234345
-0.0248866
-0.0262437
-0.0275054
-0.0286737
-0.029739
-0.0306935
-0.031505
0.0219384
0.0212862
0.0206108
0.0198955
0.0191036
0.0182778
0.0173622
0.0163887
0.0153585
0.0142425
0.0130619
0.011823
0.0105198
0.00912962
0.00770471
0.00621803
0.00467583
0.00307549
0.00144413
-0.000215206
-0.00191317
-0.00363567
-0.00538025
-0.00711228
-0.0088411
-0.0105678
-0.0122801
-0.0139668
-0.0156119
-0.0172001
-0.0187436
-0.0202322
-0.021656
-0.0230055
-0.0242675
-0.0254409
-0.0265272
-0.0275175
-0.0284043
-0.0291564
0.0206426
0.0200237
0.0193816
0.0187018
0.0179514
0.0171689
0.0163043
0.0153864
0.0144162
0.0133679
0.0122607
0.0111001
0.00988111
0.00858366
0.00725426
0.00586891
0.00443335
0.00294545
0.00142939
-0.000112033
-0.00168815
-0.00328628
-0.00490412
-0.00651078
-0.00811437
-0.00971568
-0.0113035
-0.0128677
-0.014394
-0.0158681
-0.0173009
-0.0186829
-0.0200048
-0.021258
-0.0224303
-0.0235204
-0.0245292
-0.0254484
-0.0262708
-0.0269665
0.0194461
0.0188586
0.0182482
0.017602
0.0168909
0.0161493
0.0153327
0.0144668
0.0135527
0.0125675
0.0115285
0.0104406
0.00929947
0.00808755
0.00684628
0.0055543
0.00421693
0.00283244
0.00142244
-1.04956e-05
-0.00147453
-0.0029582
-0.00445938
-0.00595043
-0.00743843
-0.0089239
-0.0103966
-0.0118474
-0.0132633
-0.0146313
-0.015961
-0.0172434
-0.0184701
-0.0196331
-0.0207211
-0.0217327
-0.0226684
-0.0235204
-0.0242818
-0.0249239
0.0183403
0.0177825
0.0172021
0.016588
0.015914
0.0152111
0.0144395
0.0136226
0.0127609
0.0118346
0.010859
0.00983869
0.00876979
0.00763694
0.00647711
0.00527135
0.00402455
0.00273535
0.00142308
9.0135e-05
-0.00127062
-0.00264884
-0.00404248
-0.00542684
-0.00680807
-0.00818644
-0.00955264
-0.0108983
-0.0122117
-0.0134812
-0.0147147
-0.0159043
-0.0170421
-0.0181206
-0.0191296
-0.0200675
-0.0209343
-0.0217229
-0.0224269
-0.0230185
0.0173172
0.0167876
0.0162359
0.0156522
0.0150134
0.0143471
0.0136179
0.0128468
0.0120345
0.0111631
0.0102467
0.00928919
0.00828737
0.00722775
0.00614335
0.00501735
0.00385424
0.002653
0.00143095
0.000190293
-0.00107518
-0.0023561
-0.00365051
-0.0049363
-0.00621879
-0.00749808
-0.00876568
-0.0100139
-0.0112323
-0.0124101
-0.0135542
-0.0146573
-0.015712
-0.0167116
-0.0176466
-0.0185153
-0.0193175
-0.0200467
-0.0206965
-0.0212406
0.01637
0.0158672
0.0153426
0.0147879
0.0141824
0.0135508
0.0128615
0.0121336
0.0113675
0.0105475
0.00968629
0.00878734
0.00784793
0.00685626
0.00584184
0.00478974
0.00370411
0.0025842
0.00144554
0.0002902
-0.000887225
-0.00207826
-0.00328101
-0.00447566
-0.00566679
-0.00685434
-0.00803062
-0.00918862
-0.0103188
-0.0114113
-0.0124722
-0.0134948
-0.0144721
-0.015398
-0.0162639
-0.0170678
-0.0178095
-0.0184828
-0.0190818
-0.0195813
0.0154923
0.0150147
0.0145162
0.013989
0.013415
0.0128162
0.0121647
0.0114773
0.0107547
0.00998283
0.00917315
0.00832885
0.00744758
0.00651906
0.00556967
0.00458615
0.00357234
0.00252774
0.00146629
0.000389919
-0.000706054
-0.00181394
-0.00293192
-0.00404221
-0.00514876
-0.00625136
-0.00734303
-0.00841736
-0.00946563
-0.010479
-0.0114625
-0.01241
-0.0133152
-0.0141724
-0.0149737
-0.0157171
-0.0164022
-0.0170232
-0.0175746
-0.0180324
0.0146782
0.0142247
0.0137508
0.0132499
0.0127057
0.0121382
0.0115222
0.010873
0.0101912
0.00946446
0.00870302
0.00790979
0.00708279
0.00621305
0.00532416
0.00440438
0.00345724
0.00248246
0.00149258
0.0004894
-0.000531134
-0.00156204
-0.00260154
-0.0036337
-0.00466189
-0.00568578
-0.00669902
-0.00769574
-0.00866801
-0.00960776
-0.0105193
-0.011397
-0.0122351
-0.0130282
-0.0137692
-0.0144561
-0.0150883
-0.0156605
-0.0161674
-0.0165861
0.0139225
0.013492
0.0130415
0.0125657
0.0120498
0.0115118
0.0109293
0.0103162
0.00967281
0.00898834
0.00827209
0.00752664
0.00675034
0.00593539
0.00510287
0.00424239
0.00335722
0.00244727
0.00152381
0.00058852
-0.000362072
-0.00132163
-0.00228842
-0.00324815
-0.00420371
-0.00515463
-0.00609513
-0.00701983
-0.00792153
-0.00879287
-0.00963757
-0.0104503
-0.0112259
-0.0119594
-0.0126442
-0.0132784
-0.0138613
-0.0143879
-0.0148532
-0.0152354
0.0132206
0.0128118
0.0123837
0.0119317
0.0114426
0.0109327
0.0103819
0.00980273
0.00919553
0.00855079
0.0078769
0.00717622
0.00644734
0.0056835
0.00490355
0.00409832
0.00327081
0.0024211
0.00155934
0.000687104
-0.000198582
-0.00109195
-0.00199132
-0.00288387
-0.00377205
-0.0046553
-0.0055283
-0.00638615
-0.00722231
-0.00803008
-0.00881263
-0.00956504
-0.0102825
-0.0109605
-0.011593
-0.0121781
-0.0127149
-0.013199
-0.0136256
-0.0139738
0.0125681
0.0121799
0.0117732
0.0113438
0.0108803
0.0103969
0.00987612
0.00932898
0.00875589
0.00814848
0.00751436
0.00685563
0.00617114
0.00545503
0.00472417
0.00397043
0.00319663
0.00240297
0.00159857
0.000784947
-4.04554e-05
-0.000872379
-0.00170919
-0.00253938
-0.003365
-0.00418544
-0.00499581
-0.00579162
-0.00656692
-0.00731562
-0.00804038
-0.00873671
-0.00940014
-0.0100265
-0.0106102
-0.0111496
-0.0116435
-0.012088
-0.0124785
-0.012795
0.0119611
0.0115925
0.0112062
0.0107984
0.010359
0.00990096
0.00940847
0.00889159
0.00835067
0.00777839
0.0071816
0.00656222
0.00591932
0.00524783
0.00456282
0.00385716
0.00313343
0.00239194
0.00164093
0.000881829
0.00011246
-0.000662383
-0.0014411
-0.00221336
-0.00298089
-0.003743
-0.00449523
-0.00523344
-0.00595222
-0.00664602
-0.0073171
-0.00796129
-0.00857447
-0.00915278
-0.00969117
-0.0101879
-0.010642
-0.0110496
-0.0114064
-0.0116934
0.0113961
0.0110461
0.0106791
0.010292
0.00987558
0.00944149
0.00897581
0.00848751
0.00797697
0.00743774
0.00687603
0.00629361
0.00568969
0.00505993
0.00441781
0.00375704
0.00308002
0.00238715
0.00168587
0.000977526
0.00026028
-0.000461494
-0.00118624
-0.00190467
-0.0026182
-0.00332614
-0.00402438
-0.0047091
-0.00537538
-0.00601817
-0.00663935
-0.00723508
-0.00780154
-0.00833518
-0.0088314
-0.00928852
-0.00970549
-0.0100787
-0.0104043
-0.0106639
0.0108697
0.0105375
0.0101889
0.00982142
0.00942685
0.00901556
0.00857525
0.00811398
0.00763211
0.00712401
0.0065953
0.00604758
0.00548024
0.00488954
0.00428756
0.00366874
0.00303533
0.0023878
0.00173288
0.00107182
0.00040309
-0.000269312
-0.000943884
-0.00161226
-0.00227562
-0.00293321
-0.00358127
-0.00421631
-0.00483382
-0.00542921
-0.00600402
-0.0065547
-0.00707775
-0.00756987
-0.00802688
-0.00844716
-0.00882964
-0.00917101
-0.00946746
-0.00970163
0.010379
0.0100637
0.00973274
0.00938391
0.00901007
0.00862045
0.00820416
0.00776845
0.00731366
0.0068349
0.00633723
0.00582214
0.00528913
0.00473502
0.00417061
0.00359104
0.00299837
0.00239316
0.00178146
0.00116448
0.000540945
-8.5496e-05
-0.000713393
-0.00133522
-0.0019519
-0.0025627
-0.00316414
-0.00375302
-0.00432522
-0.00487654
-0.00540825
-0.00591707
-0.00639978
-0.00685333
-0.00727392
-0.00765997
-0.0080104
-0.00832214
-0.00859157
-0.00880214
0.00992129
0.00962207
0.00930785
0.00897685
0.0086227
0.00825368
0.00786014
0.0074486
0.00701942
0.00656831
0.00609987
0.00561544
0.00511469
0.00459487
0.00406567
0.00352282
0.00296824
0.00240254
0.00183118
0.00125531
0.000673887
9.02478e-05
-0.000494203
-0.00107269
-0.00164597
-0.00221325
-0.00277135
-0.00331734
-0.00384742
-0.00435778
-0.00484943
-0.00531937
-0.00576461
-0.00618235
-0.0065691
-0.00692336
-0.00724403
-0.00752827
-0.00777263
-0.00796134
0.00949405
0.00921011
0.00891188
0.00859785
0.00826242
0.00791297
0.00754099
0.00715232
0.00674734
0.00632232
0.0058814
0.00542583
0.00495537
0.00446772
0.00397152
0.00346306
0.0029441
0.00241531
0.00188162
0.00134412
0.000801961
0.0002582
-0.0002858
-0.000823938
-0.0013568
-0.0018836
-0.00240142
-0.00290752
-0.00339846
-0.00387075
-0.00432519
-0.00475901
-0.00516946
-0.00555395
-0.00590929
-0.00623402
-0.00652708
-0.00678582
-0.00700695
-0.00717546
0.00909499
0.0088256
0.00854259
0.00824474
0.00792709
0.00759624
0.00724469
0.00687768
0.00649558
0.00609515
0.00568016
0.00525176
0.00480978
0.00435231
0.00388707
0.00341081
0.0029252
0.00243091
0.00193241
0.00143073
0.000925203
0.000418617
-8.77031e-05
-0.000588265
-0.00108351
-0.00157263
-0.00205296
-0.00252199
-0.00297655
-0.00341346
-0.00383332
-0.0042336
-0.00461175
-0.00496539
-0.00529157
-0.00558891
-0.00585638
-0.0060915
-0.00629112
-0.006441
0.00872198
0.00846644
0.00819794
0.00791551
0.00761476
0.00730159
0.00696939
0.00662288
0.00626242
0.00588521
0.00549467
0.00509184
0.00467665
0.0042475
0.0038113
0.00336524
0.00291084
0.00244882
0.0019832
0.00151498
0.00104364
0.00057173
0.000100527
-0.000365025
-0.000825226
-0.00127929
-0.00172475
-0.0021593
-0.00258003
-0.00298406
-0.0033718
-0.00374093
-0.0040891
-0.00441411
-0.00471325
-0.00498522
-0.00522899
-0.00544224
-0.00562199
-0.00575473
0.0083731
0.00813074
0.00787607
0.00760833
0.00732363
0.00702727
0.00671342
0.00638631
0.00604632
0.00569103
0.00532353
0.00494479
0.00455481
0.00415225
0.00374332
0.00332555
0.0029004
0.00246856
0.00203369
0.00159674
0.00115731
0.000717752
0.000279291
-0.000153626
-0.000581185
-0.0010026
-0.00141563
-0.0018181
-0.00220739
-0.00258084
-0.00293875
-0.00327896
-0.00359931
-0.00389776
-0.00417184
-0.0044203
-0.00464215
-0.0048352
-0.00499662
-0.00511366
0.00804655
0.00781673
0.00757524
0.00732149
0.00705206
0.00677167
0.00647521
0.00616648
0.00584585
0.00551125
0.00516548
0.00480944
0.00444318
0.00406561
0.00368226
0.00329105
0.00289329
0.0024897
0.0020836
0.00167588
0.00126626
0.0008569
0.000448966
4.64784e-05
-0.000350655
-0.000741676
-0.00112451
-0.00149716
-0.0018572
-0.00220223
-0.00253242
-0.00284578
-0.00314033
-0.00341416
-0.00366503
-0.00389174
-0.00409331
-0.00426774
-0.0044123
-0.004515
0.00774069
0.00752281
0.00729387
0.00705345
0.00679852
0.00653331
0.00625334
0.00596201
0.0056597
0.00534465
0.00501937
0.00468471
0.00434078
0.00398668
0.00362738
0.00326108
0.002889
0.00251187
0.00213269
0.0017523
0.00137053
0.000989368
0.000609917
0.00023581
-0.000132969
-0.000495674
-0.000850393
-0.0011953
-0.00152815
-0.00184675
-0.00215119
-0.00243963
-0.00271024
-0.00296127
-0.00319064
-0.00339724
-0.00358011
-0.00373737
-0.00386647
-0.00395612
0.007454
0.00724748
0.0070305
0.00680276
0.00656162
0.00631083
0.00604649
0.00577165
0.00548668
0.00519007
0.00488412
0.00456962
0.00424671
0.00391469
0.00357798
0.00323506
0.00288706
0.00253471
0.00218072
0.00182591
0.00147018
0.00111534
0.000762476
0.000414851
7.25112e-05
-0.000263815
-0.000592359
-0.000911432
-0.001219
-0.00151303
-0.00179355
-0.00205887
-0.00230728
-0.00253718
-0.00274667
-0.00293468
-0.00310031
-0.00324179
-0.00335672
-0.00343456
0.00718505
0.00698935
0.00678377
0.00656811
0.00634006
0.00610298
0.00585345
0.00559423
0.00532566
0.00504649
0.00475878
0.00446328
0.00416017
0.00384889
0.00353342
0.00321245
0.00288704
0.00255791
0.00222752
0.00189664
0.00156525
0.00123502
0.000906972
0.000584058
0.000266375
-4.53657e-05
-0.000349532
-0.000644567
-0.000928605
-0.0011998
-0.00145811
-0.00170196
-0.00192979
-0.00214011
-0.00233121
-0.00250207
-0.00265181
-0.00277881
-0.00288078
-0.00294797
0.00693258
0.00674717
0.00655243
0.00634828
0.00613267
0.00590861
0.00567313
0.00542868
0.00517565
0.00491294
0.00464245
0.00436487
0.0040804
0.00378864
0.00349313
0.00319277
0.00288856
0.00258119
0.0022729
0.00196442
0.00165581
0.00134857
0.00104371
0.000743863
0.000449185
0.000160361
-0.0001211
-0.000393755
-0.000655902
-0.000905864
-0.00114352
-0.00136745
-0.0015762
-0.0017684
-0.00194249
-0.00209751
-0.00223263
-0.00234634
-0.00243651
-0.00249411
0.00669536
0.00651975
0.00633534
0.00614213
0.00593834
0.00572665
0.00550448
0.00527404
0.0050357
0.00478855
0.0045343
0.00427362
0.00400672
0.00373332
0.00345658
0.00317558
0.00289127
0.0026043
0.00231672
0.00202923
0.00174192
0.00145619
0.00117298
0.000894671
0.000621461
0.000354011
9.37086e-05
-0.000158114
-0.000399891
-0.000630095
-0.000848571
-0.001054
-0.00124505
-0.00142048
-0.00157884
-0.00171924
-0.0018409
-0.00194243
-0.00202185
-0.00207085
0.00647231
0.006306
0.00613143
0.00594863
0.00575607
0.00555613
0.00534658
0.0051294
0.00490496
0.00467251
0.0044336
0.00418885
0.00393851
0.00368238
0.00342329
0.00316049
0.00289485
0.00262702
0.00235885
0.00209101
0.00182364
0.00155803
0.00129505
0.00103687
0.0007837
0.000536187
0.000295604
6.31912e-05
-0.000159622
-0.000371447
-0.000572089
-0.000760338
-0.000934976
-0.00109485
-0.00123865
-0.00136556
-0.00147484
-0.00156521
-0.00163484
-0.00167614
0.00626236
0.00610492
0.0059397
0.00576682
0.00558491
0.00539613
0.00519854
0.00499393
0.00478264
0.00456408
0.00433965
0.00410993
0.00387519
0.00363531
0.00339283
0.00314713
0.00289903
0.00264915
0.00239919
0.00214976
0.00190106
0.00165426
0.00141019
0.00117081
0.000936361
0.000707456
0.000485269
0.000270939
6.57852e-05
-0.000128925
-0.00031298
-0.000485267
-0.000644668
-0.00079013
-0.000920462
-0.00103491
-0.00113278
-0.00121292
-0.00127362
-0.00130801
0.0060646
0.00591558
0.00575926
0.0055958
0.00542402
0.00524583
0.00505957
0.00486685
0.00466802
0.00446257
0.00425181
0.00403628
0.00381624
0.00359166
0.0033648
0.00313517
0.00290354
0.00267052
0.00243762
0.00220546
0.00197423
0.00174503
0.00151865
0.00129685
0.00107989
0.000868355
0.000663331
0.000465868
0.00027717
9.83965e-05
-7.02194e-05
-0.000227662
-0.000372912
-0.000505002
-0.000622854
-0.000725774
-0.000813131
-0.000883862
-0.000936423
-0.000964576
0.0058781
0.0057371
0.00558925
0.00543475
0.00527258
0.00510444
0.00492893
0.00474747
0.00456041
0.00436737
0.00416951
0.00396736
0.00376118
0.003551
0.00333884
0.00312432
0.00290816
0.00269095
0.00247407
0.00225809
0.00204323
0.00183051
0.00162067
0.00141531
0.00121469
0.00101939
0.000830391
0.000648663
0.000475311
0.000311395
0.000157156
1.35265e-05
-0.000118564
-0.000238234
-0.000344507
-0.000436749
-0.000514385
-0.000576455
-0.000621552
-0.000644059
0.00570208
0.00556869
0.00542889
0.0052829
0.00512985
0.00497126
0.00480592
0.00463513
0.00445922
0.00427789
0.00409221
0.00390268
0.00370957
0.00351294
0.00331462
0.00311431
0.00291269
0.00271032
0.00250846
0.00230765
0.00210814
0.00191085
0.00171649
0.00152651
0.00134118
0.00116104
0.000987007
0.000819973
0.000660944
0.000510884
0.000370049
0.000239288
0.000119449
1.13361e-05
-8.41743e-05
-0.000166504
-0.000235132
-0.000289194
-0.000327418
-0.000344766
0.00553574
0.00540959
0.00527745
0.00513955
0.00499515
0.00484562
0.00468992
0.00452922
0.00436385
0.0041936
0.00401942
0.00384179
0.00366099
0.00347713
0.00329183
0.00310488
0.00291692
0.00272849
0.00254073
0.00235415
0.00216902
0.00198619
0.00180633
0.00163074
0.00145971
0.00129376
0.00113371
0.000980403
0.000834751
0.000697633
0.000569307
0.000450549
0.000342135
0.000244792
0.000159307
8.62044e-05
2.5955e-05
-2.06718e-05
-5.25235e-05
-6.51045e-05
0.0053784
0.00525912
0.00513425
0.00500404
0.00486785
0.00472691
0.00458034
0.00442919
0.0042738
0.004114
0.00395067
0.00378427
0.00361508
0.00344324
0.0032702
0.00309582
0.0029207
0.00274535
0.00257082
0.0023976
0.00222595
0.00205667
0.00189039
0.00172828
0.00157064
0.00141796
0.001271
0.00113052
0.000997377
0.000872356
0.00075572
0.000648176
0.000550432
0.000463147
0.000387024
0.000322537
0.00027011
0.000230426
0.000204524
0.000196405
0.00522937
0.00511663
0.00499866
0.00487576
0.00474735
0.00461455
0.00447663
0.00433452
0.00418856
0.00403864
0.00388556
0.00372975
0.0035715
0.00341097
0.00324948
0.00308692
0.00292386
0.00276081
0.0025987
0.00243802
0.00227902
0.00212244
0.00196888
0.00181941
0.0016743
0.00153404
0.00139933
0.00127087
0.00114942
0.00103572
0.000930024
0.000832973
0.000745212
0.00066734
0.000599984
0.000543571
0.00049848
0.000465315
0.000445014
0.000441121
0.00508807
0.00498152
0.00487011
0.00475414
0.00463311
0.00450803
0.00437829
0.00424474
0.00410769
0.0039671
0.00382369
0.00367787
0.00352994
0.00338007
0.00322943
0.00307799
0.00292628
0.00277477
0.00262434
0.00247541
0.00232828
0.00218362
0.00204199
0.00190435
0.001771
0.00164238
0.00151914
0.00140193
0.00129144
0.00118835
0.0010929
0.00100569
0.000927287
0.000858246
0.000799124
0.000750303
0.000712123
0.000685117
0.000670131
0.00067029
0.00495389
0.00485323
0.00474805
0.00463865
0.00452462
0.00440685
0.00428486
0.0041594
0.00403078
0.00389899
0.0037647
0.00362831
0.0034901
0.00335026
0.00320984
0.00306887
0.00292782
0.00278717
0.00264769
0.00250981
0.00237382
0.00224033
0.00210989
0.00198335
0.00186102
0.00174331