/*--------------------------------*- C++ -*----------------------------------*\
| =========                 |                                                 |
| \\      /  F ield         | OpenFOAM: The Open Source CFD Toolbox           |
|  \\    /   O peration     | Version:  3.0.1                                 |
|   \\  /    A nd           | Web:      www.OpenFOAM.org                      |
|    \\/     M anipulation  |                                                 |
\*---------------------------------------------------------------------------*/
FoamFile
{
    version     2.0;
    format      ascii;
    class       surfaceScalarField;
    location    "500";
    object      phi;
}
// * * * * * * * * * * * * * * * * * * * * * * * * * * * * * * * * * * * * * //

dimensions      [0 3 -1 0 0 0 0];

internalField   nonuniform List<scalar> 
115520
(
0.00680555
-0.00232721
-0.00447833
0.00868968
-0.00188414
0.00981262
-0.00112294
0.0104959
-0.000683242
0.0108381
-0.000342219
0.0109993
-0.000161207
0.0110501
-5.08411e-05
0.0110592
-9.04473e-06
0.0110434
1.58108e-05
0.0110448
-1.44205e-06
0.0110779
-3.30629e-05
0.011128
-5.00783e-05
0.0111952
-6.72221e-05
0.0113056
-0.000110401
0.0114349
-0.000129331
0.0115745
-0.000139576
0.0117201
-0.000145594
0.0118784
-0.00015837
0.0120455
-0.000167026
0.0122102
-0.000164699
0.0123697
-0.000159567
0.012522
-0.000152309
0.0126732
-0.000151189
0.0128177
-0.000144514
0.012951
-0.000133207
0.0130719
-0.000120929
0.0131797
-0.000107788
0.0132757
-9.60748e-05
0.013362
-8.62921e-05
0.0134325
-7.05055e-05
0.0134867
-5.4192e-05
0.0135239
-3.71964e-05
0.0135431
-1.91771e-05
0.0135409
2.23481e-06
0.0134944
4.65131e-05
0.0134106
8.38099e-05
0.0133073
0.000103258
0.0132012
0.000106112
0.0131105
9.06493e-05
6.18514e-05
0.0130487
0.00370457
-0.00355726
-0.00247452
0.00485544
-0.00303501
0.00593324
-0.00220073
0.0069127
-0.00166271
0.00774807
-0.00117758
0.00846845
-0.000881592
0.0090716
-0.000653987
0.00958384
-0.000521285
0.0100115
-0.000411902
0.0103856
-0.000375515
0.0107224
-0.000369887
0.0110205
-0.000348167
0.011287
-0.000333639
0.0115567
-0.000380149
0.011813
-0.000385632
0.0120555
-0.000382035
0.0122853
-0.000375447
0.0125165
-0.000389517
0.0127458
-0.000396378
0.0129647
-0.000383547
0.0131726
-0.000367523
0.0133687
-0.000348372
0.0135625
-0.000344995
0.0137472
-0.000329182
0.0139184
-0.000304402
0.0140753
-0.000277919
0.0142173
-0.000249767
0.0143464
-0.000225132
0.0144655
-0.000205446
0.0145684
-0.000173364
0.0146548
-0.00014063
0.014725
-0.000107332
0.0147794
-7.36396e-05
0.0148225
-4.08832e-05
0.0148545
1.45095e-05
0.0148723
6.60074e-05
0.0148755
0.000100134
0.0148641
0.000117533
0.0148384
0.000116298
9.55425e-05
0.0148047
0.00324663
-0.00459921
-0.00220467
0.00427043
-0.00405882
0.00526032
-0.00319062
0.00622881
-0.0026312
0.00708588
-0.00203465
0.00790733
-0.00170304
0.00860888
-0.00135554
0.0092321
-0.0011445
0.00979577
-0.000975568
0.0102801
-0.000859826
0.0107067
-0.000796464
0.0110943
-0.000735846
0.0114474
-0.000686713
0.0117704
-0.000703138
0.0120734
-0.000688638
0.0123596
-0.000668185
0.0126311
-0.000646989
0.0128925
-0.000650949
0.0131445
-0.000648338
0.013385
-0.000624078
0.0136143
-0.000596791
0.013832
-0.000566105
0.0140413
-0.000554255
0.014239
-0.000526906
0.0144232
-0.000488562
0.0145933
-0.000448077
0.0147489
-0.000405393
0.0148905
-0.000366667
0.0150185
-0.000333462
0.0151298
-0.000284675
0.015224
-0.000234847
0.0153007
-0.000184024
0.0153593
-0.000132245
0.0154
-8.15762e-05
0.015423
-8.50713e-06
0.015428
6.10173e-05
0.015417
0.00011118
0.0153912
0.000143288
0.01535
0.000157471
0.000153258
0.0152923
0.00282217
-0.00547233
-0.00194905
0.00369993
-0.00493658
0.00457406
-0.00406475
0.00545699
-0.00351413
0.00628727
-0.00286493
0.00711189
-0.00252766
0.00786347
-0.00210713
0.00856344
-0.00184447
0.00922046
-0.00163258
0.00980893
-0.0014483
0.0103414
-0.00132896
0.0108321
-0.00122651
0.0112817
-0.00113628
0.0116892
-0.00111072
0.0120679
-0.00106732
0.012421
-0.00102123
0.0127506
-0.000976666
0.0130614
-0.000961715
0.013356
-0.00094291
0.013634
-0.000902107
0.013896
-0.000858769
0.0141422
-0.000812334
0.0143764
-0.000788478
0.0145966
-0.000747109
0.0148011
-0.000693073
0.0149896
-0.00063652
0.0151616
-0.000577382
0.0153179
-0.000523032
0.0154598
-0.000475279
0.0155839
-0.000408819
0.01569
-0.000340945
0.0157777
-0.000271686
0.0158465
-0.0002011
0.0158972
-0.000132248
0.0159297
-4.10085e-05
0.0159422
4.84752e-05
0.0159355
0.000117949
0.0159103
0.000168493
0.0158671
0.00020067
0.000214833
0.0158055
0.00263794
-0.00627634
-0.00183394
0.00344733
-0.00574596
0.00425647
-0.0048739
0.00508118
-0.00433883
0.00587518
-0.00365893
0.00668015
-0.00333263
0.00743692
-0.00286391
0.00816188
-0.00256943
0.00886279
-0.00233349
0.00950718
-0.0020927
0.0101023
-0.00192404
0.010662
-0.00178624
0.0111842
-0.00165844
0.0116562
-0.00158278
0.0120962
-0.00150735
0.0125076
-0.00143259
0.0128918
-0.00136084
0.0132491
-0.001319
0.0135837
-0.00127751
0.0138981
-0.00121656
0.0141932
-0.00115385
0.0144695
-0.00108861
0.0147286
-0.00104759
0.0149705
-0.00098905
0.0151948
-0.000917357
0.0154013
-0.000843005
0.0155898
-0.000765869
0.0157607
-0.000693912
0.0159145
-0.000629111
0.0160495
-0.000543792
0.0161653
-0.000456748
0.0162616
-0.000368022
0.0163382
-0.000277677
0.0163954
-0.000189453
0.0164334
-7.89821e-05
0.0164509
3.09884e-05
0.0164479
0.000120868
0.0164248
0.000191639
0.0163814
0.000244072
0.000278823
0.0163174
0.00251598
-0.00704023
-0.00175208
0.00328512
-0.0065151
0.00405516
-0.00564394
0.00483985
-0.00512352
0.00560582
-0.0044249
0.00638683
-0.00411364
0.0071367
-0.00361377
0.00786772
-0.00330045
0.0085866
-0.00305237
0.0092626
-0.0027687
0.00989891
-0.00256034
0.010507
-0.00239436
0.0110832
-0.00223457
0.0116094
-0.00210903
0.0121037
-0.00200165
0.0125685
-0.00189737
0.0130041
-0.00179649
0.0134082
-0.0017231
0.0137853
-0.00165454
0.014139
-0.00157031
0.0144701
-0.00148498
0.0147793
-0.00139775
0.0150669
-0.00133526
0.0153344
-0.00125653
0.0155819
-0.00116485
0.0158094
-0.0010705
0.0160169
-0.000973305
0.0162045
-0.00088159
0.016373
-0.000797556
0.0165211
-0.000691927
0.0166487
-0.000584328
0.0167555
-0.00047481
0.0168413
-0.000363452
0.0169064
-0.000254574
0.0169511
-0.0001237
0.0169743
7.73071e-06
0.016976
0.000119187
0.0169561
0.000211561
0.0169145
0.000285648
0.00034223
0.0168511
0.00244984
-0.00778662
-0.00170346
0.00320021
-0.00726547
0.00395081
-0.00639455
0.00471326
-0.00588597
0.00546242
-0.00517405
0.00622619
-0.00487741
0.00696835
-0.00435594
0.007699
-0.0040311
0.00842443
-0.00377779
0.00911747
-0.00346175
0.00977924
-0.00322211
0.0104194
-0.00303455
0.0110338
-0.00284889
0.0116015
-0.00267674
0.0121393
-0.00253951
0.0126489
-0.00240692
0.0131295
-0.00227712
0.0135762
-0.00216985
0.0139932
-0.00207153
0.014385
-0.00196207
0.0147519
-0.00185191
0.0150945
-0.00174027
0.0154117
-0.0016525
0.0157059
-0.00155078
0.015978
-0.00143695
0.0162281
-0.0013205
0.016456
-0.00120124
0.0166619
-0.00108753
0.0168462
-0.000981842
0.0170086
-0.000854321
0.0171489
-0.000724654
0.017267
-0.000592903
0.0173627
-0.000459153
0.0174363
-0.000328111
0.0174879
-0.000175344
0.0175169
-2.1295e-05
0.0175232
0.000112949
0.0175065
0.000228211
0.0174669
0.000325268
0.000404905
0.0174042
0.00241544
-0.00852822
-0.00167385
0.00315996
-0.00800999
0.00390403
-0.00713862
0.00465709
-0.00663902
0.00539963
-0.0059166
0.00615449
-0.00563227
0.00689315
-0.0050946
0.00762403
-0.00476197
0.00835287
-0.00450664
0.00905675
-0.00416563
0.0097358
-0.00390116
0.0103981
-0.0036969
0.0110397
-0.00349044
0.0116394
-0.00327641
0.0122119
-0.0031121
0.0127583
-0.00295322
0.0132769
-0.00279579
0.0137614
-0.00265428
0.0142149
-0.0025251
0.0146422
-0.0023894
0.0150433
-0.00225301
0.0154183
-0.00211526
0.0157652
-0.00199934
0.0160867
-0.00187234
0.0163842
-0.00173441
0.0166576
-0.00159393
0.016907
-0.00145066
0.0171323
-0.00131282
0.0173337
-0.00118318
0.0175115
-0.00103213
0.0176656
-0.00087881
0.017796
-0.000723286
0.0179025
-0.00056566
0.0179853
-0.000410868
0.0180446
-0.000234651
0.01808
-5.67042e-05
0.0180913
0.000101625
0.0180785
0.000241085
0.0180413
0.000362402
0.000466319
0.0179799
0.00240402
-0.0092738
-0.00165844
0.00315166
-0.00875763
0.00389826
-0.00788522
0.00465144
-0.0073922
0.00539554
-0.0066607
0.00614932
-0.00638604
0.00688989
-0.00583518
0.00762432
-0.0054964
0.00835774
-0.00524006
0.00907105
-0.00487893
0.00976396
-0.00459407
0.0104434
-0.00437632
0.0111057
-0.00415273
0.0117308
-0.0039015
0.0123314
-0.00371278
0.012908
-0.00352978
0.0134586
-0.00334642
0.0139758
-0.00317144
0.014462
-0.00301132
0.0149217
-0.00284906
0.0153544
-0.00268575
0.01576
-0.00252088
0.0161355
-0.00237479
0.0164838
-0.0022207
0.0168065
-0.00205707
0.0171034
-0.00189087
0.0173747
-0.00172188
0.0176198
-0.00155797
0.0178388
-0.00140222
0.0180327
-0.00122602
0.0182014
-0.00104746
0.0183447
-0.000866602
0.0184626
-0.000683576
0.0185552
-0.000503405
0.0186226
-0.000302123
0.0186648
-9.89188e-05
0.0186816
8.48507e-05
0.0186728
0.000249856
0.0186385
0.000396759
0.000526232
0.0185786
0.00240916
-0.0100295
-0.00165345
0.00316627
-0.00951474
0.00392191
-0.00864086
0.00468218
-0.00815247
0.0054342
-0.00741272
0.00619339
-0.00714523
0.00694107
-0.00658286
0.00768314
-0.00623846
0.00842404
-0.00598096
0.00914785
-0.00560274
0.00985415
-0.00530038
0.0105488
-0.00507097
0.0112287
-0.0048326
0.0118754
-0.00454823
0.0124999
-0.00433729
0.0131021
-0.00413201
0.0136801
-0.00392437
0.0142259
-0.0037172
0.0147412
-0.00352666
0.0152301
-0.00333793
0.0156918
-0.00314745
0.0161258
-0.00295493
0.0165284
-0.00277735
0.0169025
-0.00259486
0.0172497
-0.00240424
0.0175697
-0.0022109
0.0178626
-0.0020147
0.0181276
-0.00182299
0.0183646
-0.0016392
0.0185748
-0.00143631
0.0187583
-0.00123095
0.018915
-0.00102323
0.0190447
-0.000813279
0.0191474
-0.000606106
0.0192234
-0.000378137
0.0192727
-0.000148275
0.0192953
6.23298e-05
0.0192908
0.000254263
0.0192595
0.000428111
0.000584467
0.0192013
0.00242707
-0.0108
-0.00165662
0.00319842
-0.0102861
0.00396798
-0.00941042
0.00474064
-0.00892512
0.00550553
-0.00817761
0.00627541
-0.00791512
0.00703473
-0.00734218
0.00778838
-0.0069921
0.00854014
-0.00673272
0.00927664
-0.00633924
0.0099974
-0.00602114
0.0107074
-0.00578094
0.0114039
-0.00552911
0.0120705
-0.00521485
0.0127165
-0.00498327
0.0133416
-0.00475709
0.0139437
-0.0045265
0.014515
-0.00428852
0.0150566
-0.00406829
0.0155721
-0.00385335
0.0160603
-0.00363572
0.0165207
-0.00341526
0.0169488
-0.00320545
0.0173475
-0.00299359
0.0177182
-0.00277493
0.0180606
-0.00255329
0.0183745
-0.00232859
0.0186591
-0.00210759
0.0189139
-0.00189404
0.0191406
-0.001663
0.019339
-0.00142937
0.0195091
-0.00119329
0.0196507
-0.000954929
0.0197638
-0.000719161
0.0198486
-0.000462902
0.0199052
-0.000204959
0.0199337
3.38975e-05
0.0199338
0.000254165
0.0199055
0.000456349
0.000640955
0.019849
0.00245522
-0.0115888
-0.00166641
0.00324455
-0.0110754
0.00403186
-0.0101977
0.00482104
-0.0097143
0.00560276
-0.00895934
0.00638762
-0.00869998
0.00716243
-0.008117
0.00793123
-0.0077609
0.00869717
-0.00749867
0.0094489
-0.00709097
0.0101859
-0.00675813
0.0109123
-0.00650737
0.0116259
-0.00624266
0.012312
-0.00590093
0.0129784
-0.00564976
0.0136249
-0.00540358
0.0142494
-0.00515097
0.0148443
-0.00488343
0.0154103
-0.00463425
0.0159503
-0.00439334
0.0164631
-0.0041486
0.016948
-0.0039001
0.0174001
-0.0036576
0.0178222
-0.00341566
0.0182154
-0.00316812
0.0185793
-0.00291719
0.0189136
-0.00266288
0.0192173
-0.0024113
0.0194897
-0.00216648
0.0197326
-0.00190592
0.0199459
-0.00164262
0.0201293
-0.00137675
0.0202829
-0.00110852
0.0204064
-0.000842611
0.0205
-0.000556487
0.020564
-0.000269034
0.0205984
-4.95834e-07
0.0206031
0.00024953
0.020578
0.000481461
0.000695715
0.0205232
0.00249191
-0.012399
-0.00168174
0.00330228
-0.0118858
0.00411049
-0.0110059
0.00491955
-0.0105234
0.00572136
-0.00976115
0.00652473
-0.00950334
0.00731831
-0.00891058
0.00810541
-0.008548
0.0088886
-0.00828186
0.00965812
-0.00786049
0.0104134
-0.00751341
0.0111579
-0.00725188
0.0118896
-0.00697437
0.0125956
-0.00660695
0.0132826
-0.00633674
0.0139501
-0.00607103
0.014596
-0.00579695
0.0152135
-0.00550083
0.0158025
-0.0052233
0.0163657
-0.00495656
0.0169019
-0.00468474
0.0174098
-0.00440805
0.0178849
-0.00413262
0.0183292
-0.00386004
0.018744
-0.00358287
0.0191286
-0.00330179
0.0194826
-0.00301688
0.0198048
-0.00273356
0.0200945
-0.00245615
0.0203534
-0.00216477
0.0205812
-0.00187046
0.0207779
-0.00157343
0.0209433
-0.00127392
0.0210771
-0.000976378
0.0211794
-0.000658853
0.0212508
-0.000340457
0.0212912
-4.0803e-05
0.0213003
0.000240415
0.0212782
0.000503524
0.000748848
0.0212251
0.00253595
-0.013233
-0.00170186
0.00337
-0.0127198
0.00420177
-0.0118377
0.00503356
-0.0113552
0.00585823
-0.0105858
0.0066831
-0.0103282
0.00749829
-0.00972577
0.00830646
-0.00935616
0.00910967
-0.00908507
0.00989943
-0.00865024
0.0106751
-0.00828907
0.0114395
-0.00801633
0.0121909
-0.00772576
0.0129178
-0.00733386
0.0136259
-0.0070448
0.0143145
-0.00675968
0.0149819
-0.00646434
0.0156214
-0.00614035
0.016233
-0.00583486
0.0168187
-0.00554227
0.0173773
-0.00524328
0.0179074
-0.00493823
0.0184045
-0.00462969
0.0188704
-0.00432594
0.019306
-0.00401845
0.0197106
-0.0037064
0.0200837
-0.00338997
0.020424
-0.00307387
0.0207305
-0.00276265
0.0210049
-0.00243924
0.0212471
-0.00211262
0.0214568
-0.00178309
0.0216338
-0.00145094
0.0217777
-0.00112031
0.0218888
-0.000769883
0.0219674
-0.000419112
0.0220135
-8.69023e-05
0.022027
0.000226952
0.0220078
0.000522684
0.000800524
0.0219561
0.00258653
-0.0140934
-0.00172622
0.00344659
-0.0135799
0.00430427
-0.0126954
0.00516128
-0.0122122
0.00601124
-0.0114358
0.00686022
-0.0111772
0.00769952
-0.0105651
0.00853124
-0.0101879
0.00935699
-0.00991082
0.0101693
-0.00946253
0.0109674
-0.00908718
0.0117537
-0.00880261
0.0125264
-0.0084985
0.0132755
-0.0080829
0.0140056
-0.00777491
0.0147161
-0.00747022
0.0154053
-0.00715354
0.0160671
-0.00680208
0.016701
-0.00646883
0.017309
-0.00615022
0.0178895
-0.00582383
0.0184414
-0.00549013
0.01896
-0.00514827
0.0194469
-0.00481284
0.0199028
-0.00447432
0.0203269
-0.0041305
0.0207186
-0.00378167
0.0210765
-0.00343179
0.0213995
-0.00308565
0.0216893
-0.002729
0.0219455
-0.00236883
0.0221679
-0.0020055
0.0223563
-0.00163935
0.0225102
-0.00127421
0.0226297
-0.000889411
0.0227154
-0.000504829
0.0227672
-0.000138618
0.0227848
0.000209327
0.0227683
0.000539141
0.000850962
0.0227179
0.00264307
-0.014982
-0.00175445
0.00353127
-0.0144681
0.004417
-0.0135811
0.00530147
-0.0130966
0.00617891
-0.0123132
0.00705434
-0.0120526
0.00792002
-0.0114308
0.00877755
-0.0110454
0.00962814
-0.0107614
0.0104651
-0.0102995
0.0112877
-0.00990972
0.0120977
-0.00961262
0.0128935
-0.00929433
0.0136661
-0.0088555
0.0144195
-0.00852827
0.0151529
-0.00820364
0.0158646
-0.0078653
0.0165491
-0.00748654
0.0172058
-0.0071255
0.0178361
-0.00678052
0.0184386
-0.00642636
0.0190121
-0.0060636
0.019552
-0.00568815
0.0200596
-0.00532048
0.0205355
-0.0049502
0.0209787
-0.00457379
0.0213887
-0.00419164
0.0217639
-0.00380701
0.0221032
-0.00342488
0.022408
-0.00303381
0.022678
-0.00263885
0.0229129
-0.00224042
0.0231125
-0.00183894
0.0232762
-0.00143789
0.023404
-0.00101725
0.0234966
-0.000597415
0.0235537
-0.000195745
0.0235753
0.00018776
0.0235613
0.000553136
0.000900423
0.0235119
0.00270514
-0.0159009
-0.00178623
0.00362348
-0.0153864
0.00453928
-0.0144969
0.00545328
-0.0140106
0.00636025
-0.0132202
0.00726428
-0.0129566
0.00815843
-0.0123249
0.00904387
-0.0119309
0.00992143
-0.011639
0.0107851
-0.0111632
0.011634
-0.0107586
0.0124696
-0.0104482
0.0132903
-0.010115
0.0140879
-0.00965314
0.0148659
-0.00930621
0.0156233
-0.00896109
0.0163586
-0.0086006
0.0170666
-0.00819448
0.0177465
-0.00780545
0.0183996
-0.00743359
0.0190244
-0.00705115
0.0196196
-0.00665878
0.0201808
-0.00624937
0.0207091
-0.00584882
0.0212049
-0.00544598
0.0216672
-0.00503612
0.0220953
-0.00461973
0.0224877
-0.00419937
0.022843
-0.00378017
0.0231627
-0.0033535
0.0234463
-0.00292249
0.0236935
-0.00248766
0.0239041
-0.00204951
0.0240774
-0.00161114
0.0242133
-0.00115322
0.0243126
-0.000696666
0.0243749
-0.000258062
0.0244002
0.000162492
0.0243884
0.00056493
0.000949197
0.0243396
0.00277246
-0.016852
-0.00182137
0.00372285
-0.0163368
0.00467063
-0.0154447
0.00561614
-0.0149562
0.00655457
-0.0141586
0.00748923
-0.0138913
0.00841383
-0.0132495
0.00932915
-0.0128462
0.0102357
-0.0125455
0.0111281
-0.0120555
0.0120052
-0.0116357
0.0128682
-0.0113112
0.0137154
-0.0109623
0.0145397
-0.0104774
0.0153436
-0.0101101
0.0161263
-0.00974385
0.0168863
-0.00936058
0.0176187
-0.00892684
0.0183227
-0.00850945
0.0189992
-0.00811007
0.0196467
-0.00769869
0.020264
-0.00727605
0.0208468
-0.00683221
0.021396
-0.00639806
0.0219118
-0.00596177
0.0223933
-0.00551753
0.0228394
-0.00506591
0.0232489
-0.0046088
0.0236202
-0.00415147
0.0239546
-0.00368797
0.0242518
-0.00321965
0.0245112
-0.0027471
0.0247326
-0.0022709
0.0249153
-0.00179381
0.0250592
-0.00129714
0.0251649
-0.000802388
0.0252322
-0.000325351
0.0252609
0.000133767
0.0252511
0.000574798
0.000997587
0.0252027
0.00284483
-0.0178371
-0.00185971
0.00382913
-0.0173211
0.00481076
-0.0164263
0.00578969
-0.0159351
0.00676146
-0.0151304
0.00772869
-0.0148585
0.00868564
-0.0142065
0.00963275
-0.0137933
0.0105702
-0.013483
0.0114931
-0.0129784
0.0124002
-0.0125429
0.0132924
-0.0122034
0.014168
-0.0118379
0.0150204
-0.0113297
0.0158517
-0.0109415
0.0166612
-0.0105533
0.0174471
-0.0101465
0.0182049
-0.00968471
0.0189339
-0.00923843
0.0196346
-0.00881076
0.0203056
-0.00836968
0.0209455
-0.00791598
0.0215504
-0.0074371
0.0221209
-0.00696853
0.0226569
-0.00649785
0.0231576
-0.00601823
0.023622
-0.00553032
0.0240486
-0.00503538
0.024436
-0.00453881
0.0247852
-0.00403722
0.0250959
-0.00353028
0.0253674
-0.00301866
0.0255995
-0.00250302
0.0257915
-0.00198578
0.0259432
-0.00144887
0.0260553
-0.000914407
0.0261273
-0.000397403
0.0261592
0.000101829
0.026151
0.000583016
0.0010459
0.0261027
0.00292213
-0.0188581
-0.00190114
0.00394218
-0.0183412
0.00495949
-0.0174436
0.00597371
-0.0169493
0.00698066
-0.0161373
0.00798236
-0.0158602
0.00897353
-0.0151976
0.00995429
-0.014774
0.0109246
-0.0144533
0.0118798
-0.0139336
0.0128187
-0.0134818
0.0137418
-0.0131264
0.0146475
-0.0127436
0.0155295
-0.0122118
0.0163898
-0.0118018
0.0172274
-0.0113908
0.0180405
-0.0109596
0.018825
-0.0104692
0.01958
-0.00999343
0.0203059
-0.00953661
0.0210011
-0.00906494
0.0216644
-0.00857926
0.0222919
-0.00806464
0.0228842
-0.00756073
0.0234409
-0.00705462
0.0239612
-0.00653853
0.0244441
-0.00601321
0.024888
-0.00547932
0.0252916
-0.00494234
0.0256557
-0.00440135
0.0259799
-0.00385444
0.0262635
-0.00330235
0.0265064
-0.00274583
0.0267075
-0.00218697
0.026867
-0.0016083
0.0269851
-0.00103257
0.0270618
-0.000474027
0.0270967
6.69084e-05
0.0270898
0.000589855
0.00109446
0.0270413
0.00300428
-0.0199168
-0.0019456
0.00406193
-0.0193988
0.00511675
-0.0184985
0.00616811
-0.0180007
0.00721209
-0.0171813
0.00825013
-0.0168983
0.00927736
-0.0162249
0.0102936
-0.0157903
0.0112986
-0.0154583
0.0122879
-0.014923
0.0132604
-0.0144543
0.0142162
-0.0140822
0.0151536
-0.0136809
0.0160669
-0.0131252
0.0169577
-0.0126925
0.0178248
-0.0122579
0.0186665
-0.0118013
0.019479
-0.0112817
0.0202611
-0.0107756
0.0210131
-0.0102886
0.0217336
-0.00978539
0.0224211
-0.00926674
0.023072
-0.00871555
0.0236865
-0.0081753
0.0242645
-0.00763261
0.0248049
-0.00707889
0.0253067
-0.00651496
0.0257682
-0.0059409
0.0261882
-0.00536229
0.0265674
-0.00478053
0.0269052
-0.00419223
0.027201
-0.00359822
0.0274545
-0.00299933
0.0276649
-0.00239734
0.027832
-0.00177536
0.0279561
-0.00115676
0.0280372
-0.000555055
0.0280749
2.92193e-05
0.0280691
0.000595577
0.00114356
0.02802
0.00309127
-0.021015
-0.00199305
0.00418836
-0.0204959
0.00528254
-0.0195927
0.0063729
-0.019091
0.00745574
-0.0182641
0.00853199
-0.0179745
0.00959711
-0.01729
0.0106507
-0.0168438
0.0116922
-0.0164998
0.0127175
-0.0159483
0.0137253
-0.015462
0.0147154
-0.0150723
0.0156863
-0.0146518
0.0166326
-0.0140715
0.0175554
-0.0136153
0.0184535
-0.013156
0.0193252
-0.0126731
0.0201669
-0.0121234
0.0209774
-0.0115861
0.0217568
-0.011068
0.0225035
-0.0105321
0.0232161
-0.00997934
0.0238911
-0.00939064
0.0245288
-0.00881294
0.0251286
-0.00823247
0.0256896
-0.00763986
0.0262107
-0.00703602
0.0266903
-0.00642052
0.027127
-0.00579898
0.0275215
-0.00517502
0.0278731
-0.00454385
0.0281813
-0.0039064
0.0284456
-0.0032636
0.0286651
-0.00261691
0.0288398
-0.00195002
0.0289699
-0.00128688
0.0290552
-0.000640344
0.0290955
-1.10418e-05
0.0290906
0.000600429
0.00119351
0.0290407
0.00318311
-0.0221546
-0.00204348
0.00432151
-0.0216343
0.00545692
-0.0207281
0.00658816
-0.0202223
0.00771171
-0.0193877
0.00882805
-0.0190909
0.00993293
-0.0183949
0.0110256
-0.0179366
0.0121055
-0.0175796
0.0131686
-0.0170114
0.0142135
-0.0165069
0.0152398
-0.0160987
0.0162458
-0.0156579
0.0172267
-0.0150524
0.0181831
-0.0145717
0.0191138
-0.0140866
0.020017
-0.0135763
0.0208893
-0.0129957
0.0217294
-0.0124263
0.0225373
-0.0118758
0.0233113
-0.0113061
0.02405
-0.0107181
0.0247502
-0.0100908
0.0254117
-0.00947447
0.0260342
-0.00885492
0.0266164
-0.00822209
0.0271573
-0.00757697
0.0276555
-0.00691865
0.0281093
-0.00625282
0.0285194
-0.00558513
0.0288851
-0.00490955
0.0292058
-0.00422709
0.029481
-0.00353875
0.0297098
-0.00284574
0.0298921
-0.00213227
0.0300281
-0.00142288
0.0301175
-0.000729778
0.0301602
-5.37003e-05
0.0301559
0.000604645
0.00124459
0.0301049
0.00327984
-0.0233376
-0.00209689
0.00446145
-0.0228159
0.00564
-0.0219066
0.00681403
-0.0213963
0.00798019
-0.0205539
0.00913852
-0.0202492
0.010285
-0.0195414
0.0114188
-0.0190703
0.0125388
-0.0186997
0.0136416
-0.0181141
0.0147253
-0.0175907
0.0157896
-0.0171629
0.0168326
-0.0167009
0.0178497
-0.0160695
0.0188413
-0.0155633
0.0198061
-0.0150514
0.0207423
-0.0145126
0.0216466
-0.0139
0.0225177
-0.0132974
0.0233553
-0.0127134
0.0241578
-0.0121086
0.0249237
-0.011484
0.02565
-0.0108171
0.0263363
-0.0101608
0.0269822
-0.00950077
0.0275864
-0.00882629
0.0281478
-0.00813844
0.028665
-0.00743585
0.0291365
-0.00672426
0.0295626
-0.00601127
0.0299427
-0.00528966
0.0302761
-0.00456053
0.0305624
-0.00382498
0.0308006
-0.00308393
0.0309904
-0.00232216
0.0311323
-0.00156474
0.0312258
-0.000823269
0.0312707
-9.86035e-05
0.0312669
0.00060844
0.00129709
0.0312144
0.00338152
-0.0245658
-0.00215331
0.00460831
-0.0240427
0.00583193
-0.0231302
0.00705071
-0.0226151
0.0082614
-0.0217645
0.00946367
-0.0214515
0.0106537
-0.0207314
0.0118304
-0.020247
0.0129926
-0.0198619
0.0141368
-0.0192583
0.0152613
-0.0187151
0.0163653
-0.0182669
0.017447
-0.0177826
0.018502
-0.0171246
0.0195305
-0.0165918
0.020531
-0.0160519
0.0215018
-0.0154833
0.0224396
-0.0148378
0.023343
-0.0142008
0.0242116
-0.013582
0.0250438
-0.0129408
0.0258382
-0.0122783
0.0265915
-0.0115705
0.0273036
-0.0108729
0.0279737
-0.0101709
0.0286007
-0.00945325
0.0291834
-0.00872112
0.0297203
-0.00797272
0.0302098
-0.00721385
0.0306525
-0.00645388
0.0310473
-0.00568454
0.0313938
-0.00490701
0.0316913
-0.00412248
0.031939
-0.00333165
0.0321367
-0.00251976
0.0322844
-0.00171246
0.0323819
-0.000920754
0.0324289
-0.000145621
0.0324253
0.000612014
0.00135127
0.0323711
0.00348826
-0.0258413
-0.00221278
0.00476222
-0.0253167
0.00603291
-0.0244009
0.00729843
-0.0238806
0.00855564
-0.0230218
0.00980382
-0.0226996
0.0110394
-0.021967
0.0122609
-0.0214685
0.0134672
-0.0210682
0.0146548
-0.0204459
0.0158218
-0.0198822
0.0169674
-0.0194125
0.0180896
-0.0189048
0.0191844
-0.0182193
0.0202514
-0.0176589
0.0212893
-0.0170897
0.0222962
-0.0164902
0.023269
-0.0158106
0.0242062
-0.0151381
0.0251072
-0.014483
0.0259705
-0.013804
0.0267944
-0.0131022
0.027576
-0.0123521
0.0283148
-0.0116117
0.0290102
-0.0108662
0.0296607
-0.0101038
0.0302654
-0.0093258
0.0308226
-0.00852996
0.031331
-0.00772217
0.0317906
-0.00691348
0.0322007
-0.00609463
0.0325605
-0.00526688
0.0328696
-0.00443154
0.033127
-0.00358907
0.0333325
-0.0027252
0.0334861
-0.00186608
0.0335875
-0.0010222
0.0336365
-0.000194642
0.033633
0.000615549
0.00140738
0.0335769
0.00360015
-0.0271661
-0.00227534
0.00492335
-0.0266399
0.00624317
-0.0257207
0.00755748
-0.0251949
0.00886324
-0.0243275
0.0101594
-0.0239958
0.0114424
-0.02325
0.0127109
-0.022737
0.0139632
-0.0223205
0.0151961
-0.0216788
0.0164076
-0.0210937
0.0175966
-0.0206015
0.0187613
-0.0200694
0.0198975
-0.0193555
0.0210049
-0.0187662
0.0220818
-0.0181667
0.0231265
-0.0175349
0.0241358
-0.0168199
0.0251083
-0.0161106
0.0260432
-0.0154179
0.0269388
-0.0146996
0.0277935
-0.013957
0.0286045
-0.0131631
0.0293712
-0.0123784
0.0300928
-0.0115878
0.0307679
-0.010779
0.0313954
-0.00995329
0.0319737
-0.0091083
0.0325014
-0.00824988
0.0329786
-0.00739063
0.0334043
-0.0065204
0.033778
-0.00564055
0.0340989
-0.00475247
0.0343663
-0.00385643
0.0345797
-0.00293861
0.0347393
-0.00202567
0.0348447
-0.00112759
0.0348956
-0.000245579
0.034892
0.000619211
0.00146567
0.0348337
0.00371733
-0.0285423
-0.00234106
0.00509189
-0.0280144
0.00646295
-0.0270918
0.00782817
-0.0265601
0.00918458
-0.0256839
0.0105308
-0.025342
0.0118634
-0.0245827
0.0131808
-0.0240543
0.0144811
-0.0236209
0.0157614
-0.022959
0.0170194
-0.0223517
0.0182538
-0.021836
0.0194627
-0.0212783
0.0206422
-0.020535
0.0217917
-0.0199157
0.0229095
-0.0192844
0.0239936
-0.018619
0.0250411
-0.0178675
0.0260504
-0.0171199
0.0270206
-0.016388
0.02795
-0.0156289
0.0288368
-0.0148439
0.0296785
-0.0140048
0.0304742
-0.0131741
0.031223
-0.0123366
0.0319237
-0.0114796
0.0325749
-0.0106045
0.0331751
-0.00970854
0.0337229
-0.00879767
0.0342182
-0.00788594
0.0346602
-0.00696238
0.0350481
-0.00602844
0.0353812
-0.00508561
0.0356588
-0.00413399
0.0358803
-0.00316019
0.036046
-0.00219132
0.0361553
-0.00123694
0.0362081
-0.000298362
0.0362042
0.000623153
0.00152637
0.0361435
0.00383994
-0.0299723
-0.00241002
0.00526805
-0.0294425
0.00669255
-0.0285163
0.00811086
-0.0279784
0.00952008
-0.0270931
0.0109185
-0.0267404
0.0123029
-0.0259671
0.0136712
-0.0254227
0.0150218
-0.0249714
0.0163514
-0.0242886
0.0176579
-0.0236582
0.0189397
-0.0231179
0.0201949
-0.0225335
0.0214196
-0.0217598
0.0226131
-0.0211092
0.0237734
-0.0204448
0.0248988
-0.0197443
0.0259861
-0.0189548
0.0270339
-0.0181676
0.0280409
-0.017395
0.0290054
-0.0165935
0.0299258
-0.0157643
0.0307994
-0.0148784
0.0316253
-0.014
0.0324025
-0.0131138
0.0331297
-0.0122067
0.0338055
-0.0112803
0.0344285
-0.0103315
0.0349971
-0.00936629
0.0355112
-0.00840008
0.03597
-0.00742114
0.0363726
-0.00643104
0.0367183
-0.00543136
0.0370064
-0.00442204
0.0372363
-0.00339013
0.0374082
-0.00236317
0.0375215
-0.0013503
0.0375761
-0.000352939
0.0375717
0.000627511
0.00158971
0.0375084
0.00396814
-0.0314581
-0.00248229
0.00545207
-0.0309265
0.00693226
-0.0299965
0.00840592
-0.0294521
0.0098702
-0.0285574
0.011323
-0.0281932
0.0127613
-0.0274054
0.0141829
-0.0268443
0.0155858
-0.0263743
0.0169669
-0.0256697
0.018324
-0.0250153
0.0196553
-0.0244492
0.0209587
-0.0238369
0.0222306
-0.0230317
0.02347
-0.0223485
0.0246748
-0.0216496
0.0258431
-0.0209127
0.0269721
-0.0200838
0.0280599
-0.0192554
0.0291053
-0.0184405
0.0301065
-0.0175947
0.0310619
-0.0167197
0.0319688
-0.0157853
0.0328261
-0.0148574
0.0336329
-0.0139205
0.0343877
-0.0129615
0.0350891
-0.0119818
0.0357357
-0.0109781
0.036326
-0.00995655
0.0368596
-0.00893374
0.0373358
-0.00789728
0.0377536
-0.00684886
0.0381124
-0.00579014
0.0384113
-0.00472093
0.0386498
-0.00362868
0.038828
-0.00254135
0.0389454
-0.0014677
0.0390017
-0.000409277
0.0389968
0.000632409
0.0016559
0.0389306
0.00410209
-0.0330022
-0.00255796
0.0056442
-0.0324686
0.00718242
-0.0315347
0.00871377
-0.0309834
0.0102354
-0.0300791
0.011745
-0.0297028
0.0132395
-0.0288999
0.0147166
-0.0283213
0.016174
-0.0278318
0.0176089
-0.0271045
0.0190187
-0.0264251
0.0204016
-0.0258321
0.0217553
-0.0251906
0.0230764
-0.0243528
0.0243636
-0.0236356
0.0256148
-0.0229008
0.026828
-0.0221259
0.0280003
-0.0212561
0.0291299
-0.020385
0.0302154
-0.0195259
0.0312549
-0.0186343
0.0322468
-0.0177115
0.0331883
-0.0167268
0.0340784
-0.0157475
0.0349159
-0.0147581
0.0356994
-0.013745
0.0364275
-0.0127099
0.0370987
-0.0116493
0.0377114
-0.0105693
0.0382654
-0.00948767
0.0387596
-0.00839148
0.0391932
-0.00728246
0.0395654
-0.0061624
0.0398755
-0.00503101
0.0401229
-0.0038761
0.0403076
-0.00272604
0.0404292
-0.00158923
0.0404872
-0.000467356
0.0404817
0.000637961
0.00172514
0.0404124
0.00424199
-0.0346071
-0.00263715
0.00584471
-0.0340713
0.00744339
-0.0331334
0.00903485
-0.0325749
0.0106163
-0.0316605
0.012185
-0.0312715
0.0137381
-0.030453
0.0152729
-0.0298562
0.0167873
-0.0293461
0.0182781
-0.0285953
0.0197429
-0.0278898
0.0211795
-0.0272688
0.0225858
-0.0265969
0.0239582
-0.0257252
0.0252953
-0.0249727
0.0265949
-0.0242004
0.0278548
-0.0233859
0.0290724
-0.0224736
0.0302455
-0.0215581
0.0313727
-0.0206532
0.0324522
-0.0197137
0.033482
-0.0187414
0.0344597
-0.0177044
0.0353839
-0.0166717
0.0362535
-0.0156276
0.0370669
-0.0145584
0.0378228
-0.0134658
0.0385195
-0.012346
0.0391556
-0.0112054
0.0397306
-0.0100627
0.0402435
-0.0089044
0.0406935
-0.00773243
0.0410797
-0.00654865
0.0414014
-0.00535267
0.041658
-0.00413269
0.0418494
-0.00291743
0.0419752
-0.00171499
0.042035
-0.000527173
0.0420287
0.00064427
0.00179763
0.0419562
0.00438804
-0.0362752
-0.00271996
0.00605389
-0.0357371
0.00771555
-0.034795
0.00936962
-0.034229
0.0110133
-0.0333041
0.0126436
-0.0329019
0.0142577
-0.032067
0.0158528
-0.0314513
0.0174265
-0.0309198
0.0189756
-0.0301445
0.0204977
-0.0294119
0.0219904
-0.0287615
0.0234514
-0.0280579
0.0248773
-0.0271511
0.0262663
-0.0263617
0.0276163
-0.0255504
0.0289251
-0.0246946
0.0301898
-0.0237383
0.0314083
-0.0227766
0.0325791
-0.021824
0.0337001
-0.0208348
0.0347696
-0.0198108
0.0357848
-0.0187197
0.0367446
-0.0176315
0.0376475
-0.0165306
0.0384921
-0.015403
0.0392769
-0.0142505
0.0400002
-0.0130694
0.0406606
-0.0118658
0.0412575
-0.0106596
0.0417899
-0.0094368
0.0422569
-0.00819941
0.0426576
-0.00694942
0.0429913
-0.00568634
0.0432574
-0.00439877
0.0434557
-0.00311573
0.0435858
-0.00184508
0.0436473
-0.000588736
0.0436402
0.000651428
0.00187358
0.0435642
0.00454045