/*--------------------------------*- C++ -*----------------------------------*\
| =========                 |                                                 |
| \\      /  F ield         | OpenFOAM: The Open Source CFD Toolbox           |
|  \\    /   O peration     | Version:  3.0.1                                 |
|   \\  /    A nd           | Web:      www.OpenFOAM.org                      |
|    \\/     M anipulation  |                                                 |
\*---------------------------------------------------------------------------*/
FoamFile
{
    version     2.0;
    format      ascii;
    class       volVectorField;
    location    "500";
    object      U;
}
// * * * * * * * * * * * * * * * * * * * * * * * * * * * * * * * * * * * * * //

dimensions      [0 1 -1 0 0 0 0];

internalField   nonuniform List<vector> 
58000
(
(0.441449 0.4584 -3.32049e-20)
(0.529333 0.619376 1.88232e-20)
(0.62993 0.716183 -1.47611e-20)
(0.728217 0.75546 8.67059e-21)
(0.817799 0.755868 -3.48372e-22)
(0.893757 0.729635 -6.82219e-22)
(0.959205 0.689774 0)
(1.0111 0.643892 -4.24648e-21)
(1.05264 0.594285 1.77275e-20)
(1.08683 0.545612 7.47758e-21)
(1.11274 0.500485 -1.5037e-20)
(1.13231 0.458556 0)
(1.14717 0.419179 0)
(1.15914 0.384415 5.59256e-21)
(1.16704 0.353988 0)
(1.17267 0.326333 -6.06904e-20)
(1.17646 0.300878 5.95568e-20)
(1.17915 0.27782 -6.67096e-21)
(1.18054 0.257387 5.26943e-20)
(1.18066 0.238848 -5.22345e-20)
(1.18013 0.221654 -5.16088e-20)
(1.1788 0.205408 5.11529e-20)
(1.17735 0.190404 0)
(1.17523 0.176795 4.94398e-20)
(1.17256 0.164146 -4.91218e-20)
(1.1696 0.152188 4.82438e-20)
(1.16632 0.140768 2.64805e-21)
(1.16278 0.129866 -4.73854e-20)
(1.15929 0.119793 0)
(1.15531 0.110466 2.74071e-21)
(1.1511 0.101595 -2.53619e-20)
(1.1467 0.0931299 4.77568e-20)
(1.14187 0.0850161 -2.49702e-22)
(1.13702 0.0774762 -2.08555e-20)
(1.13041 0.0704796 -1.01174e-20)
(1.12123 0.0639631 1.08459e-20)
(1.11073 0.0579878 6.63898e-22)
(1.10087 0.0526943 6.41123e-22)
(1.09208 0.0478314 -1.96186e-21)
(1.08936 0.0440561 3.37099e-21)
(0.552321 0.229554 -6.60803e-21)
(0.603165 0.300008 -4.92014e-21)
(0.665975 0.359028 0)
(0.734994 0.407827 -4.51165e-22)
(0.804049 0.441839 3.80736e-21)
(0.871123 0.461787 -1.16604e-20)
(0.933149 0.468674 -3.05228e-21)
(0.987144 0.465866 3.22373e-21)
(1.03578 0.454798 -4.70334e-21)
(1.07624 0.437468 0)
(1.10851 0.417788 1.1628e-20)
(1.13501 0.396127 -4.12863e-20)
(1.1567 0.372296 -3.33333e-21)
(1.17307 0.349224 -5.56021e-22)
(1.1854 0.327759 5.85606e-20)
(1.1951 0.306694 -3.75235e-20)
(1.20252 0.285891 2.83623e-20)
(1.20783 0.266359 -6.66349e-20)
(1.21152 0.248739 -4.72822e-21)
(1.21406 0.232245 3.40669e-20)
(1.21568 0.216341 4.17222e-21)
(1.21647 0.20095 0)
(1.21656 0.1867 0)
(1.21618 0.173758 0)
(1.21538 0.161504 0)
(1.21418 0.149661 3.91229e-20)
(1.21261 0.138197 -3.48399e-20)
(1.2107 0.127244 0)
(1.20863 0.11716 1.92918e-20)
(1.20641 0.107756 -2.37894e-22)
(1.204 0.0986721 -1.48747e-20)
(1.20141 0.0898904 -2.23344e-21)
(1.19874 0.0814296 1.48437e-20)
(1.19592 0.073459 -1.80545e-20)
(1.19379 0.0660933 0)
(1.19192 0.0593675 -1.01973e-21)
(1.19004 0.0532921 1.01103e-21)
(1.18833 0.047872 -5.25274e-22)
(1.18697 0.0426797 -2.03171e-21)
(1.18562 0.0378763 2.10457e-21)
(0.633025 0.187768 8.9243e-22)
(0.65145 0.241221 0)
(0.677262 0.291912 0)
(0.7114 0.338428 5.40809e-21)
(0.75228 0.376269 1.1691e-20)
(0.798219 0.405278 -1.46208e-20)
(0.84641 0.424662 4.75029e-21)
(0.893024 0.433964 1.3293e-21)
(0.939112 0.435391 -1.36467e-21)
(0.981712 0.430007 0)
(1.01856 0.419096 0)
(1.05125 0.404145 -1.804e-21)
(1.08058 0.386245 1.46759e-20)
(1.10455 0.367269 8.02756e-22)
(1.12377 0.347882 -1.69388e-20)
(1.14005 0.328097 5.34292e-21)
(1.15384 0.308296 2.62771e-20)
(1.16487 0.289295 -4.01157e-21)
(1.17334 0.271506 -1.95768e-20)
(1.18006 0.2545 -1.85645e-20)
(1.18552 0.238078 2.09342e-20)
(1.18988 0.222273 5.78023e-21)
(1.19308 0.207549 0)
(1.19527 0.193934 0)
(1.19677 0.180962 -3.02313e-21)
(1.19771 0.168487 -2.92013e-20)
(1.19817 0.156498 2.59594e-20)
(1.19817 0.145095 -3.10278e-21)
(1.19774 0.134507 -1.66932e-21)
(1.19695 0.124526 -1.66756e-21)
(1.19588 0.114869 0)
(1.19455 0.105521 0)
(1.19297 0.0964485 -1.14024e-20)
(1.19115 0.0876812 1.31482e-20)
(1.18911 0.0793264 1.58184e-21)
(1.18688 0.0714204 4.47274e-23)
(1.18457 0.0640223 -8.29135e-22)
(1.18236 0.0571759 0)
(1.18038 0.050707 1.61411e-21)
(1.17852 0.0443366 -1.70343e-21)
(0.704567 0.150582 2.17697e-21)
(0.715412 0.187201 -2.13107e-21)
(0.729857 0.22345 0)
(0.748782 0.259207 -6.83913e-21)
(0.773098 0.291251 -2.29034e-21)
(0.802177 0.319369 6.37195e-21)
(0.835406 0.341869 3.39365e-21)
(0.870021 0.357611 3.02735e-21)
(0.90639 0.367658 -3.15441e-22)
(0.942393 0.371675 0)
(0.975648 0.370205 2.21248e-22)
(1.00672 0.364375 5.66488e-21)
(1.0359 0.354837 -4.00991e-21)
(1.06114 0.342769 -2.46431e-21)
(1.08244 0.329133 0)
(1.10118 0.314185 9.16518e-21)
(1.11759 0.298277 -1.52173e-20)
(1.13128 0.282241 -1.01462e-20)
(1.14232 0.266702 1.73853e-20)
(1.15147 0.251476 -4.27e-21)
(1.15918 0.23643 3.76886e-21)
(1.16558 0.221641 -4.57976e-21)
(1.17062 0.207624 -1.75509e-20)
(1.17449 0.194526 1.75814e-20)
(1.17752 0.181957 -1.89127e-21)
(1.17986 0.169772 2.20861e-21)
(1.18158 0.157964 0)
(1.18271 0.146654 2.50705e-21)
(1.18332 0.136096 0)
(1.18351 0.126126 2.32778e-21)
(1.18335 0.116474 -9.75583e-21)
(1.18286 0.107127 9.85038e-21)
(1.18208 0.0980741 9.90228e-21)
(1.18101 0.0894045 -1.24078e-21)
(1.17973 0.0812323 -1.13395e-20)
(1.17822 0.0734709 5.65479e-21)
(1.17651 0.0660271 -5.04572e-21)
(1.17467 0.0589206 0)
(1.17282 0.0521079 6.15716e-22)
(1.17099 0.0455191 0)
(0.75021 0.131046 4.26677e-21)
(0.75681 0.158808 -1.4357e-21)
(0.765531 0.18666 -2.47103e-21)
(0.777014 0.214794 2.20259e-21)
(0.792335 0.241242 0)
(0.811446 0.265979 4.22509e-21)
(0.83443 0.287664 0)
(0.85971 0.304863 3.29398e-21)
(0.887613 0.318369 -2.19133e-21)
(0.91669 0.327307 -1.95074e-21)
(0.944963 0.331371 -1.73854e-22)
(0.972645 0.33144 -2.82404e-22)
(0.999807 0.328033 2.52671e-21)
(1.02435 0.321525 -3.17582e-21)
(1.04594 0.312657 0)
(1.06568 0.301957 1.86787e-21)
(1.08357 0.289797 0)
(1.09901 0.276844 -1.89907e-21)
(1.11189 0.263676 -5.29421e-22)
(1.12291 0.250326 -1.07621e-20)
(1.13249 0.236816 -6.26117e-21)
(1.14072 0.223285 -5.42354e-22)
(1.14745 0.210221 9.33264e-21)
(1.15283 0.19779 -1.30803e-20)
(1.15725 0.185716 1.67251e-20)
(1.1609 0.173916 1.53334e-20)
(1.16384 0.162412 -1.40165e-20)
(1.16609 0.151331 -1.1041e-20)
(1.16769 0.140913 1.45667e-20)
(1.16876 0.131007 -1.67972e-20)
(1.16941 0.121382 1.50371e-20)
(1.16969 0.112038 1.83896e-21)
(1.16962 0.102968 0)
(1.16922 0.0942626 -6.79723e-21)
(1.16854 0.0860247 1.56712e-23)
(1.16762 0.078138 7.95256e-21)
(1.16648 0.0704952 -3.98606e-21)
(1.16515 0.0631262 4.02572e-21)
(1.16366 0.0560284 -2.53048e-21)
(1.16204 0.0491854 2.15983e-21)
(0.786737 0.116245 -3.83777e-21)
(0.791417 0.137806 3.87154e-21)
(0.797288 0.159544 5.17243e-22)
(0.804799 0.181783 -4.02215e-21)
(0.814967 0.203252 3.50921e-21)
(0.827905 0.224086 -7.02437e-21)
(0.84402 0.243313 1.22961e-22)
(0.862414 0.259701 5.30225e-21)
(0.883412 0.273865 -5.15464e-21)
(0.906201 0.284807 4.64408e-21)
(0.929296 0.291894 -3.12819e-21)
(0.952737 0.295727 -7.72944e-22)
(0.976551 0.296623 1.10101e-21)
(0.998947 0.29441 4.87274e-22)
(1.01938 0.289637 8.00682e-22)
(1.03863 0.282847 3.81833e-21)
(1.0566 0.274324 -3.87501e-21)
(1.0726 0.264537 1.57182e-21)
(1.08636 0.254012 6.16546e-21)
(1.09845 0.242916 -6.63558e-21)
(1.10921 0.231339 2.14365e-21)
(1.11867 0.219444 8.62238e-21)
(1.12663 0.20768 -6.27473e-21)
(1.13319 0.196265 -2.19704e-21)
(1.13875 0.185022 -9.9982e-21)
(1.14347 0.173908 1.77929e-20)
(1.14741 0.162962 -1.05164e-20)
(1.1506 0.152323 -2.86311e-22)
(1.15305 0.142228 1.12835e-20)
(1.1549 0.132568 -2.28697e-20)
(1.15629 0.123143 1.30491e-20)
(1.15724 0.113959 -1.35384e-20)
(1.1578 0.105017 4.57075e-21)
(1.15798 0.0964057 1.23184e-20)
(1.15783 0.0882314 -6.24334e-21)
(1.15741 0.0803867 -6.32191e-21)
(1.15675 0.0727613 6.38933e-21)
(1.15584 0.0653771 3.2154e-21)
(1.15473 0.0582453 -2.85642e-21)
(1.15342 0.0513782 0)
(0.814684 0.105605 9.56621e-22)
(0.818281 0.122945 -2.56172e-21)
(0.82262 0.140429 3.2397e-21)
(0.827998 0.15837 0)
(0.835232 0.175926 0)
(0.84447 0.193304 0)
(0.856158 0.209847 -4.88198e-21)
(0.869812 0.224574 2.79638e-21)
(0.885735 0.238018 2.34894e-21)
(0.903512 0.249278 -1.67859e-21)
(0.922109 0.25762 0)
(0.941525 0.263463 -9.94766e-22)
(0.961803 0.267007 -2.63436e-22)
(0.98151 0.267754 0)
(1.00006 0.266041 -8.98663e-22)
(1.018 0.26237 -2.07712e-21)
(1.03519 0.256931 2.10971e-21)
(1.05091 0.249999 -3.68105e-21)
(1.06481 0.241986 2.55049e-21)
(1.07732 0.233127 2.12222e-21)
(1.08868 0.223553 -3.20596e-21)
(1.0989 0.213429 -5.00135e-22)
(1.10769 0.203145 4.77274e-21)
(1.11511 0.192934 2.58952e-22)
(1.12154 0.182707 0)
(1.12713 0.172461 0)
(1.13192 0.162253 -8.26552e-21)
(1.13592 0.152226 1.66569e-20)
(1.13911 0.142611 -6.55725e-21)
(1.14166 0.133333 0)
(1.14371 0.124227 -1.0493e-20)
(1.14528 0.115308 -1.01048e-22)
(1.14641 0.106587 1.09032e-20)
(1.14713 0.0981513 -4.94675e-21)
(1.14748 0.0901044 6.22504e-21)
(1.14752 0.0823493 5.11345e-21)
(1.14727 0.0747823 -5.17371e-21)
(1.14676 0.0674271 0)
(1.14599 0.0603031 -1.66241e-21)
(1.14499 0.0534321 1.2488e-21)
(0.837288 0.0973137 -1.52408e-21)
(0.840228 0.111587 2.29449e-21)
(0.843655 0.125956 0)
(0.847774 0.140697 0)
(0.853233 0.155221 2.15594e-21)
(0.860164 0.16975 -2.15584e-21)
(0.868968 0.183839 3.64336e-21)
(0.879381 0.196736 -5.2574e-22)
(0.891665 0.208912 -3.49242e-21)
(0.905638 0.219619 1.409e-23)
(0.920598 0.228164 0)
(0.936547 0.234849 8.59066e-22)
(0.953558 0.239806 -1.5967e-21)
(0.970541 0.242394 1.31833e-21)
(0.986944 0.242793 2.71387e-22)
(1.00316 0.24143 0)
(1.01904 0.23841 0)
(1.03392 0.233845 8.65128e-22)
(1.0474 0.228033 4.66328e-21)
(1.05978 0.221225 -1.3231e-20)
(1.07126 0.21356 4.92872e-21)
(1.08176 0.205185 1.96384e-21)
(1.091 0.196419 1.30504e-21)
(1.09896 0.187494 4.33787e-21)
(1.10598 0.178391 -5.40394e-21)
(1.11219 0.169131 3.28581e-21)
(1.11762 0.159783 -1.23298e-21)
(1.12226 0.15049 -9.77835e-21)
(1.12608 0.141472 -3.4436e-21)
(1.12922 0.132688 0)
(1.13183 0.124009 0)
(1.13395 0.115456 -7.63815e-21)
(1.1356 0.107047 5.87011e-21)
(1.1368 0.0988703 9.59646e-22)
(1.13759 0.0910286 3.03091e-21)
(1.13804 0.0834395 -4.15156e-21)
(1.13819 0.0760108 5.11861e-22)
(1.13804 0.0687674 0)
(1.1376 0.061732 2.6351e-22)
(1.1369 0.0549307 1.50881e-22)
(0.855795 0.0906973 -1.76945e-22)
(0.858306 0.102678 -2.05015e-22)
(0.861157 0.114713 2.73537e-21)
(0.864496 0.127036 1.71711e-21)
(0.868836 0.139215 1.68567e-21)
(0.874283 0.151462 3.26715e-21)
(0.881172 0.163468 -6.61205e-21)
(0.889358 0.174662 -1.58661e-21)
(0.899058 0.185454 1.44016e-21)
(0.910211 0.195249 1.27134e-21)
(0.922344 0.203442 -2.99765e-21)
(0.935471 0.210264 1.33628e-21)
(0.949685 0.215815 2.15291e-21)
(0.964179 0.219426 -1.03988e-21)
(0.978476 0.22117 1.10398e-21)
(0.99287 0.221398 8.4868e-22)
(1.00722 0.220155 7.78177e-22)
(1.02095 0.217436 -5.63665e-21)
(1.03365 0.213432 4.73507e-21)
(1.04554 0.208383 -1.26125e-21)
(1.05674 0.202415 0)
(1.06717 0.19565 3.45552e-21)
(1.07652 0.188333 -5.06215e-21)
(1.08472 0.180681 -5.97712e-21)
(1.09208 0.17272 8.19689e-21)
(1.09868 0.164488 -6.97643e-21)
(1.10456 0.15606 1.08716e-20)
(1.10967 0.147571 1.3773e-21)
(1.11396 0.139228 1.44056e-21)
(1.11758 0.131019 -1.35117e-21)
(1.12066 0.122844 0)
(1.12323 0.114733 -1.46815e-21)
(1.12533 0.10671 1.65597e-21)
(1.12696 0.098861 4.13738e-21)
(1.12815 0.0912891 -5.84578e-21)
(1.12897 0.083926 4.26385e-21)
(1.12947 0.0766919 -3.94321e-21)
(1.12965 0.0696131 0)
(1.12952 0.0627152 -9.20023e-22)
(1.12911 0.0560251 9.6763e-22)
(0.871253 0.0852581 0)
(0.873462 0.0954715 -3.15572e-21)
(0.875924 0.105707 -3.07233e-21)
(0.878747 0.116161 -1.51447e-21)
(0.882342 0.126505 -1.62387e-21)
(0.886794 0.136931 0)
(0.892374 0.147215 1.40078e-21)
(0.899002 0.156919 -1.11049e-24)
(0.906849 0.166402 -1.9871e-22)
(0.915918 0.175193 -7.86955e-23)
(0.925885 0.182782 -2.67871e-22)
(0.936776 0.189358 -4.08936e-21)
(0.948689 0.195002 -1.25499e-21)
(0.961034 0.199083 -4.04857e-22)
(0.973417 0.201608 2.86277e-22)
(0.986065 0.202864 1.14144e-22)
(0.998857 0.202855 3.22694e-22)
(1.01132 0.201502 0)
(1.02306 0.198913 -2.78926e-21)
(1.03422 0.195298 1.9697e-21)
(1.0449 0.190764 0)
(1.05499 0.185405 7.19748e-21)
(1.06418 0.179397 -6.40736e-21)
(1.07239 0.172934 1.37731e-21)
(1.07985 0.166068 6.80504e-21)
(1.08665 0.158846 -5.224e-21)
(1.09277 0.151341 0)
(1.09819 0.143679 0)
(1.10282 0.136048 -2.07133e-21)
(1.1068 0.128458 1.20668e-21)
(1.11024 0.120838 4.85722e-21)
(1.11319 0.11322 -3.62237e-21)
(1.11565 0.105635 0)
(1.11763 0.0981661 1.12502e-22)
(1.11917 0.0909153 -4.8313e-21)
(1.12032 0.0838286 2.76865e-21)
(1.12113 0.0768383 0)
(1.12161 0.069972 -1.49111e-21)
(1.12176 0.0632569 9.47458e-22)
(1.12162 0.0567201 -9.78428e-23)
(0.884339 0.0806934 7.86462e-22)
(0.886324 0.0895107 7.90753e-22)
(0.888507 0.098327 1.33158e-21)
(0.89097 0.107308 9.1817e-23)
(0.894046 0.116197 -4.78206e-23)
(0.897802 0.125159 0)
(0.902458 0.13403 2.80505e-23)
(0.907968 0.142469 2.04321e-21)
(0.914466 0.150784 -2.2196e-21)
(0.921982 0.158604 -3.23093e-23)
(0.930294 0.165508 8.24939e-22)
(0.939429 0.171653 2.56503e-21)
(0.949486 0.17711 5.6002e-22)
(0.960031 0.181312 -1.15128e-21)
(0.970749 0.184232 -2.5794e-22)
(0.981818 0.186102 1.21726e-22)
(0.993145 0.186907 -2.87243e-22)
(1.00434 0.186523 -3.04727e-22)
(1.01505 0.184997 1.83293e-22)
(1.02538 0.182507 -2.71337e-21)
(1.03538 0.17914 2.42964e-21)
(1.04496 0.174961 -3.82471e-21)
(1.05381 0.170091 3.71178e-21)
(1.06184 0.164693 -6.0347e-21)
(1.06923 0.158833 6.04962e-21)
(1.07605 0.152559 -7.36369e-21)
(1.08227 0.145939 -4.10651e-22)
(1.08784 0.139087 7.97363e-21)
(1.09268 0.13217 -1.73325e-21)
(1.09689 0.125215 3.63943e-21)
(1.1006 0.118171 -1.87005e-21)
(1.10383 0.111075 0)
(1.10657 0.103959 0)
(1.10885 0.0969056 1.1618e-21)
(1.11067 0.0900124 -2.2249e-21)
(1.1121 0.0832392 -6.51394e-22)
(1.11318 0.0765295 -2.80507e-23)
(1.11392 0.0699117 2.4882e-21)
(1.11433 0.0634142 3.30882e-22)
(1.11442 0.0570641 8.80105e-23)
(0.895553 0.0767956 -2.56611e-22)
(0.897363 0.0844872 1.13616e-21)
(0.899335 0.0921623 -9.99645e-22)
(0.901533 0.0999609 -9.34419e-22)
(0.904231 0.107675 -9.53429e-22)
(0.907482 0.11545 1.72989e-21)
(0.911462 0.123159 4.99812e-23)
(0.916147 0.130532 1.69093e-21)
(0.921642 0.137834 -1.30936e-22)
(0.927985 0.144769 -2.87615e-21)
(0.935022 0.150992 2.92481e-21)
(0.942779 0.156635 2.41453e-21)
(0.951347 0.161763 9.95517e-22)
(0.960408 0.165881 3.38805e-24)
(0.96971 0.168942 0)
(0.979398 0.171142 0)
(0.989402 0.172451 -1.2956e-23)
(0.999403 0.172727 2.9587e-22)
(1.0091 0.171974 -1.69736e-22)
(1.01856 0.170342 8.39579e-22)
(1.02782 0.167895 2.24516e-21)
(1.03679 0.164678 -2.97064e-21)
(1.04519 0.160765 -1.86545e-21)
(1.0529 0.156291 -4.36727e-22)
(1.06009 0.151325 -1.49865e-21)
(1.06679 0.145912 4.27564e-21)
(1.07298 0.140113 0)
(1.07858 0.134025 -1.54837e-22)
(1.08352 0.127799 0)
(1.08787 0.121469 -1.4506e-21)
(1.09175 0.115001 1.69894e-21)
(1.09516 0.108434 -3.45472e-21)
(1.09812 0.101802 5.21329e-21)
(1.10062 0.0951823 -4.64392e-21)
(1.10266 0.0886695 5.7472e-21)
(1.10432 0.0822347 -2.01046e-21)
(1.10563 0.0758313 4.68267e-22)
(1.10659 0.0694888 2.10258e-21)
(1.10722 0.0632358 -5.43e-22)
(1.10753 0.0570994 5.02664e-22)
(0.905256 0.0734199 -4.08421e-22)
(0.906924 0.0801883 -4.57713e-22)
(0.90873 0.0869295 -7.55592e-22)
(0.910726 0.0937624 1.74641e-21)
(0.913137 0.100517 5.05231e-21)
(0.916006 0.107316 -3.21503e-21)
(0.919478 0.114063 0)
(0.923537 0.120539 1.41643e-21)
(0.928268 0.126972 -2.79152e-21)
(0.93371 0.133123 0)
(0.939752 0.138708 -1.13734e-21)
(0.94642 0.14384 -2.09514e-21)
(0.953794 0.14858 -1.64778e-21)
(0.961637 0.1525 9.06026e-22)
(0.96975 0.155548 3.50522e-22)
(0.978251 0.157885 -1.27702e-21)
(0.987089 0.15948 3.14246e-23)
(0.996009 0.160185 -8.20415e-23)
(1.00475 0.159979 -1.14807e-22)
(1.01337 0.158984 -4.50817e-22)
(1.02187 0.157247 1.67938e-21)
(1.03019 0.154798 -8.1814e-22)
(1.03807 0.151673 -1.29111e-21)
(1.04539 0.14798 2.96159e-21)
(1.05229 0.143789 -4.49444e-21)
(1.05877 0.139138 0)
(1.06482 0.134079 4.14433e-21)
(1.07036 0.128696 -5.34951e-21)
(1.07529 0.123117 0)
(1.07969 0.117385 1.32681e-21)
(1.08366 0.111476 -2.73229e-21)
(1.08719 0.105429 2.77633e-21)
(1.09029 0.0992792 -1.56143e-21)
(1.09294 0.0930984 8.15183e-22)
(1.09516 0.0869762 -6.70901e-23)
(1.097 0.0808935 -2.51438e-21)
(1.09849 0.0748125 1.27905e-21)
(1.09963 0.0687629 9.05568e-22)
(1.10044 0.0627735 -1.38042e-21)
(1.10094 0.0568709 6.07566e-22)
(0.913724 0.070462 -3.69958e-22)
(0.915274 0.0764618 -1.1487e-21)
(0.916944 0.0824275 2.33465e-21)
(0.918778 0.0884605 -1.52168e-21)
(0.920963 0.0944188 -1.49139e-21)
(0.923534 0.100409 2.75595e-21)
(0.926611 0.106352 -2.63064e-21)
(0.930184 0.112071 -1.23053e-21)
(0.93432 0.117761 1.24122e-21)
(0.939057 0.123226 2.10529e-21)
(0.944312 0.128231 -1.07969e-21)
(0.950109 0.132876 9.39345e-22)
(0.956519 0.137214 -1.46478e-21)
(0.963362 0.14088 2.97806e-22)
(0.970479 0.143822 1.16782e-21)
(0.97797 0.146175 -1.90131e-22)
(0.985797 0.147906 1.59165e-22)
(0.993755 0.148874 2.16475e-22)
(1.00162 0.149043 -2.22962e-22)
(1.00944 0.14851 4.15025e-22)
(1.01722 0.147313 -4.97647e-22)
(1.02488 0.145464 -8.09472e-22)
(1.03222 0.142976 -2.01481e-21)
(1.03911 0.139934 3.06759e-21)
(1.04565 0.136401 1.37527e-21)
(1.05186 0.132412 -1.37316e-21)
(1.05769 0.128008 3.39352e-21)
(1.06309 0.12326 -3.43401e-21)
(1.06795 0.118277 0)
(1.07233 0.113102 -4.28882e-21)
(1.07631 0.107724 4.35578e-21)
(1.07989 0.102176 -2.42306e-21)
(1.08306 0.0964951 3.66207e-21)
(1.08582 0.0907469 3.93637e-21)
(1.08816 0.0850154 -3.4358e-21)
(1.09012 0.079289 7.47558e-22)
(1.09175 0.0735378 0)
(1.09305 0.0677909 -1.55014e-21)
(1.09401 0.062077 1.37879e-21)
(1.09466 0.0564224 -2.88362e-23)
(0.921169 0.0678446 7.18223e-22)
(0.922617 0.0731965 6.50179e-22)
(0.924173 0.0785098 5.79817e-22)
(0.925873 0.0838715 0)
(0.927874 0.0891618 0)
(0.930206 0.0944725 0)
(0.932968 0.0997391 -1.0961e-21)
(0.936153 0.104815 2.23225e-21)
(0.939815 0.109867 0)
(0.94399 0.114735 -9.11545e-22)
(0.948614 0.119223 0)
(0.953707 0.123417 1.46277e-21)
(0.959331 0.127366 -2.18382e-21)
(0.965349 0.130757 5.59773e-22)
(0.971632 0.133541 4.62252e-22)
(0.978264 0.135834 0)
(0.98522 0.137604 2.16649e-22)
(0.992331 0.138719 -2.38024e-22)
(0.999415 0.139134 3.55445e-22)
(1.0065 0.13893 -3.59556e-22)
(1.01359 0.138134 8.37379e-22)
(1.02063 0.136749 5.27971e-22)
(1.02742 0.13477 -1.60675e-21)
(1.03385 0.132263 1.49928e-21)
(1.04001 0.129284 -3.18485e-21)
(1.0459 0.125861 -1.23272e-22)
(1.05148 0.122028 3.81065e-21)
(1.05668 0.117843 3.07843e-21)
(1.06141 0.113398 -8.01145e-21)
(1.06571 0.108736 6.98172e-21)
(1.06965 0.103851 1.09485e-21)
(1.07322 0.0987745 -2.95149e-21)
(1.07642 0.0935406 -1.11199e-21)
(1.07923 0.0882104 -1.16958e-21)
(1.08164 0.0828615 0)
(1.0837 0.0774882 5.89627e-22)
(1.08543 0.0720669 6.15576e-22)
(1.08683 0.0666259 0)
(1.08791 0.0611934 3.40841e-22)
(1.08869 0.0557952 -2.31262e-23)
(0.927755 0.065509 4.22744e-22)
(0.929113 0.0703086 1.37368e-21)
(0.930571 0.075067 -1.15844e-21)
(0.932157 0.0798591 -1.02163e-21)
(0.934005 0.0845828 0)
(0.93614 0.0893172 0)
(0.938644 0.0940085 0)
(0.941513 0.0985345 0)
(0.944792 0.103039 1.67749e-21)
(0.948509 0.107388 -6.07602e-23)
(0.952617 0.111418 0)
(0.957134 0.115202 1.2722e-21)
(0.962112 0.118785 -1.28279e-21)
(0.967443 0.1219 -1.43534e-21)
(0.973025 0.124503 1.62806e-21)
(0.978928 0.126691 -7.1723e-22)
(0.985133 0.128436 1.83491e-22)
(0.991505 0.129617 -7.59413e-23)
(0.997891 0.130188 -2.36787e-22)
(1.00431 0.130212 7.63036e-23)
(1.01077 0.12971 -3.50469e-22)
(1.01722 0.12868 -4.90962e-22)
(1.02348 0.127103 0)
(1.02947 0.125031 -1.44573e-21)
(1.03523 0.122513 9.07516e-22)
(1.04078 0.11957 1.0445e-21)
(1.04607 0.11623 -1.24777e-22)
(1.05104 0.112538 1.17489e-21)
(1.0556 0.108573 2.72772e-21)
(1.05978 0.104376 -1.40518e-21)
(1.06364 0.0999434 -8.33865e-22)
(1.06716 0.0953052 -7.72848e-23)
(1.07034 0.0904919 3.68604e-21)
(1.07316 0.0855595 -3.74323e-21)
(1.0756 0.0805793 0)
(1.07771 0.0755501 -1.05387e-21)
(1.07951 0.0704532 -5.72021e-22)
(1.08099 0.065316 0)
(1.08216 0.0601658 -1.5265e-22)
(1.08303 0.0550278 0)
(0.933613 0.0634097 -1.73056e-22)
(0.934892 0.067734 -1.5135e-21)
(0.936262 0.0720158 -4.60309e-22)
(0.93775 0.0763198 1.90229e-21)
(0.939468 0.0805581 0)
(0.941437 0.0847992 -2.51924e-21)
(0.943726 0.0889978 1.71162e-21)
(0.946332 0.0930506 -1.54935e-21)
(0.949293 0.097082 1.5552e-21)
(0.952633 0.100979 -7.39708e-22)
(0.956314 0.104603 0)
(0.960352 0.108019 0)
(0.964792 0.111266 0)
(0.969549 0.114116 8.63048e-22)
(0.974537 0.116528 -6.35641e-22)
(0.979818 0.118588 6.43353e-22)
(0.985377 0.120269 0)
(0.991105 0.121463 2.3702e-22)
(0.996872 0.122122 -3.12787e-22)
(1.00269 0.1223 1.21516e-21)
(1.00858 0.122011 -7.56569e-22)
(1.01448 0.121249 0)
(1.02025 0.119989 0)
(1.02579 0.118268 6.29741e-22)
(1.03117 0.11613 2.16682e-21)
(1.03637 0.113591 -1.52471e-21)
(1.04136 0.110673 8.74984e-23)
(1.04608 0.107411 -4.2511e-21)
(1.05045 0.103871 3.36674e-21)
(1.05447 0.100091 9.77701e-23)
(1.05821 0.0960694 0)
(1.06165 0.0918337 -7.59401e-22)
(1.06477 0.0874115 7.41131e-22)
(1.06757 0.0828533 8.80936e-22)
(1.07001 0.078224 5.85872e-23)
(1.07214 0.0735255 -1.3106e-21)
(1.07397 0.0687434 9.59693e-22)
(1.0755 0.0639038 -1.97154e-21)
(1.07673 0.0590327 1.25456e-21)
(1.07768 0.0541546 0)
(0.93885 0.0615108 -2.56104e-23)
(0.940057 0.0654227 -4.32913e-22)
(0.941349 0.0692916 0)
(0.942749 0.0731738 7.72076e-22)
(0.944353 0.0769929 0)
(0.94618 0.0808083 3.69949e-21)
(0.948286 0.0845813 -7.05121e-23)
(0.950671 0.0882243 -1.4379e-21)
(0.953363 0.0918447 2.60629e-21)
(0.956387 0.0953464 0)
(0.959711 0.0986122 1.09048e-21)
(0.963346 0.101699 9.66792e-22)
(0.967334 0.10464 -9.35782e-22)
(0.971604 0.10724 -6.25704e-22)
(0.976087 0.109464 1.4338e-21)
(0.980834 0.111384 0)
(0.985837 0.112979 0)
(0.991003 0.114149 1.19547e-23)
(0.996224 0.114851 2.0383e-22)
(1.00151 0.115129 -2.05907e-22)
(1.00688 0.114992 -5.9994e-22)
(1.01227 0.11443 -9.21988e-22)
(1.01758 0.113417 6.32576e-22)
(1.02271 0.11198 0)
(1.02771 0.110154 1.89307e-21)
(1.03257 0.107954 -5.45546e-21)
(1.03726 0.105395 3.77022e-21)
(1.04172 0.102505 -3.59804e-21)
(1.04586 0.0993386 1.86225e-21)
(1.04972 0.0959295 -1.00147e-22)
(1.05331 0.092279 2.37355e-21)
(1.05664 0.0884105 -4.95843e-21)
(1.05969 0.0843489 1.89196e-21)
(1.06243 0.0801394 -2.81571e-21)
(1.06484 0.0758408 2.20679e-21)
(1.06696 0.0714572 -1.58961e-21)
(1.0688 0.0669774 1.61951e-21)
(1.07036 0.0624259 1.27944e-21)
(1.07163 0.0578277 -1.32078e-21)
(1.07263 0.0532061 0)
(0.94355 0.0597837 0)
(0.944691 0.0633352 0)
(0.945913 0.0668436 1.79565e-23)
(0.947235 0.0703585 -7.56276e-22)
(0.948739 0.0738127 1.30898e-21)
(0.95044 0.077258 -5.25503e-21)
(0.952389 0.080661 7.84552e-23)
(0.954583 0.0839469 -1.26422e-21)
(0.957048 0.0872085 -3.38817e-21)
(0.959802 0.0903638 2.14062e-21)
(0.962821 0.0933127 -1.02237e-21)
(0.966115 0.0961043 8.30775e-23)
(0.969718 0.0987692 6.44293e-22)
(0.973573 0.101138 -9.56659e-22)
(0.977622 0.103181 -1.72134e-21)
(0.98191 0.10496 1.01971e-21)
(0.986429 0.106455 1.65093e-22)
(0.991104 0.10758 -7.92305e-22)
(0.995843 0.108293 1.11044e-22)
(1.00066 0.10863 -5.76168e-22)
(1.00555 0.108598 8.88221e-22)
(1.01049 0.108186 -7.13957e-22)
(1.01537 0.107365 6.88493e-22)
(1.02011 0.106155 -7.68853e-22)
(1.02475 0.104586 9.31753e-22)
(1.02928 0.102669 0)
(1.03367 0.100415 0)
(1.03786 0.0978464 7.86219e-22)
(1.04179 0.0950068 0)
(1.04545 0.0919272 -9.54268e-22)
(1.0489 0.0886093 0)
(1.0521 0.0850737 3.22023e-21)
(1.05504 0.0813425 -1.12876e-21)
(1.0577 0.0774557 6.36251e-22)
(1.06007 0.0734664 6.73428e-22)
(1.06216 0.0693801 0)
(1.06399 0.0651881 0)
(1.06555 0.0609134 -3.8838e-22)
(1.06684 0.0565794 5.9114e-22)
(1.06787 0.0522086 -3.93931e-22)
(0.947786 0.0582055 3.29039e-22)
(0.948867 0.0614396 0)
(0.950024 0.0646315 3.6937e-23)
(0.951274 0.0678241 6.26242e-22)
(0.952687 0.0709586 -2.96765e-21)
(0.954279 0.0740801 4.60894e-21)
(0.956089 0.0771595 -1.04429e-21)
(0.958118 0.0801322 0)
(0.960385 0.0830791 1.04293e-21)
(0.962908 0.0859296 -9.78338e-22)
(0.965665 0.0885975 -9.03684e-22)
(0.968665 0.0911259 6.33932e-23)
(0.971938 0.0935416 6.22185e-22)
(0.975435 0.0956986 -1.31394e-21)
(0.97911 0.0975701 -5.22346e-22)
(0.982999 0.0992102 0)
(0.987097 0.100601 2.84616e-22)
(0.991342 0.101668 1.79645e-22)
(0.995655 0.10237 -2.4343e-22)
(1.00005 0.102738 3.34714e-22)
(1.00452 0.102776 -3.54712e-22)
(1.00905 0.102475 4.18084e-22)
(1.01353 0.101803 0)
(1.01791 0.100775 7.25404e-22)
(1.02221 0.0994171 -8.78882e-22)
(1.02642 0.0977365 0)
(1.03052 0.0957412 1.07858e-21)
(1.03446 0.0934487 2.68237e-21)
(1.03816 0.0908946 -4.32648e-21)
(1.04163 0.0881063 3.0047e-21)
(1.04491 0.0850858 1.76189e-21)
(1.04796 0.0818508 -2.75487e-21)
(1.05079 0.0784208 -1.03564e-21)
(1.05337 0.0748313 -1.0169e-21)
(1.05567 0.0711297 0)
(1.05771 0.0673223 0)
(1.05951 0.0634026 0)
(1.06106 0.0593918 3.14615e-22)
(1.06235 0.055312 -3.41566e-22)
(1.06339 0.0511844 3.32302e-22)
(0.951615 0.0567572 -5.2856e-22)
(0.95264 0.0597105 5.5983e-22)
(0.953737 0.0626224 -5.44458e-22)
(0.954922 0.0655307 -5.35226e-22)
(0.956254 0.0683834 1.64508e-21)
(0.957746 0.0712199 -2.03408e-21)
(0.959434 0.0740145 7.962e-23)
(0.961317 0.0767113 -8.95002e-22)
(0.963412 0.0793808 -1.68899e-21)
(0.965733 0.0819619 2.42945e-21)
(0.968262 0.0843802 -1.40905e-22)
(0.971008 0.0866733 -9.72331e-23)
(0.973994 0.0888648 -1.26077e-21)
(0.977182 0.0908281 9.77461e-22)
(0.98053 0.0925399 -5.52505e-22)
(0.98407 0.0940469 -6.01646e-22)
(0.9878 0.095334 6.06261e-22)
(0.991666 0.0963339 -3.1638e-23)
(0.995602 0.0970104 2.25623e-22)
(0.999614 0.0973894 4.45476e-23)
(1.00371 0.0974738 0)
(1.00786 0.0972522 0)
(1.01199 0.0966955 0)
(1.01603 0.0958138 1.27903e-21)
(1.02001 0.0946292 -1.29321e-21)
(1.02393 0.0931464 0)
(1.02775 0.0913709 -1.01974e-21)
(1.03143 0.0893162 2.31086e-21)
(1.03491 0.0870113 -3.63243e-21)
(1.03819 0.0844803 0)
(1.04129 0.0817251 1.5276e-21)
(1.04421 0.0787608 -7.81273e-22)
(1.04691 0.0756047 -1.7678e-21)
(1.04938 0.0722878 2.75598e-21)
(1.0516 0.0688527 -1.05371e-21)
(1.05359 0.0653059 2.52634e-21)
(1.05534 0.0616425 0)
(1.05686 0.0578821 -2.16756e-23)
(1.05814 0.0540452 1.43084e-22)
(1.05918 0.050152 -8.41952e-24)
(0.955087 0.0554232 2.78017e-22)
(0.956061 0.0581267 -3.96229e-23)
(0.957103 0.0607899 5.21226e-22)
(0.958226 0.0634459 9.29208e-22)
(0.959484 0.0660487 0)
(0.960887 0.0686328 1.80938e-21)
(0.962465 0.0711755 -8.23156e-22)
(0.964218 0.0736282 1.69811e-21)
(0.96616 0.0760521 1.55005e-21)
(0.968304 0.0783943 -1.3886e-21)
(0.970634 0.0805902 1.39789e-21)
(0.973156 0.0826727 1.19643e-21)
(0.975892 0.0846625 -1.0731e-21)
(0.978808 0.0864497 1.88314e-21)
(0.98187 0.0880135 -5.73105e-22)
(0.985105 0.0893949 -7.11121e-22)
(0.988511 0.0905803 2.19239e-22)
(0.992042 0.0915106 1.30667e-22)
(0.995642 0.0921528 2.44803e-23)
(0.999317 0.0925287 3.21096e-23)
(1.00307 0.0926401 1.5662e-22)
(1.00688 0.092476 0)
(1.01068 0.0920083 0)
(1.01442 0.0912441 0)
(1.0181 0.0902018 1.31931e-21)
(1.02174 0.0888848 -4.78268e-22)
(1.0253 0.0872962 -1.56549e-21)
(1.02874 0.0854465 -9.10238e-22)
(1.032 0.0833592 -2.22422e-21)
(1.03509 0.0810552 3.3765e-21)
(1.03802 0.0785365 2.65899e-21)
(1.04078 0.0758159 -4.19523e-21)
(1.04336 0.0729083 2.18151e-21)
(1.04572 0.0698409 0)
(1.04785 0.0666519 8.54744e-22)
(1.04976 0.0633478 -3.16877e-21)
(1.05146 0.0599247 4.78206e-22)
(1.05295 0.0564009 -5.03167e-22)
(1.05419 0.0527952 -5.24839e-22)
(1.05522 0.0491267 2.94511e-22)
(0.958245 0.0541905 -4.58173e-22)
(0.95917 0.0566707 -3.44677e-23)
(0.96016 0.0591117 8.57697e-22)
(0.961226 0.0615429 -1.73215e-21)
(0.962416 0.0639232 8.46035e-22)
(0.963737 0.0662828 0)
(0.965217 0.0686015 0)
(0.966853 0.070837 0)
(0.96866 0.0730427 -7.12225e-22)
(0.970646 0.0751722 6.10574e-22)
(0.972799 0.0771695 -2.36046e-21)
(0.975124 0.0790633 1.19461e-21)
(0.97764 0.0808717 1.40969e-21)
(0.980317 0.0824987 -9.00507e-22)
(0.983126 0.0839264 -6.26136e-22)
(0.986091 0.0851903 6.31062e-22)
(0.98921 0.0862784 -2.08941e-22)
(0.992444 0.0871387 -1.24473e-22)
(0.995745 0.0877412 -7.75582e-23)
(0.999117 0.0881045 1.31763e-22)
(1.00257 0.0882295 -3.36796e-22)
(1.00607 0.0881057 5.58541e-22)
(1.00957 0.0877067 -2.51258e-22)
(1.01302 0.0870369 -9.43957e-22)
(1.01644 0.0861122 2.59502e-21)
(1.01981 0.0849344 -4.98241e-22)
(1.02312 0.0835052 6.94375e-22)
(1.02633 0.0818325 8.64709e-22)
(1.02938 0.0799354 1.93673e-21)
(1.03228 0.0778321 8.12216e-23)
(1.03505 0.0755242 -1.0806e-21)
(1.03766 0.0730227 -6.36613e-22)
(1.0401 0.0703405 -6.85993e-22)
(1.04235 0.0675013 0)
(1.04438 0.064539 -1.53336e-21)
(1.04622 0.0614603 -6.1877e-23)
(1.04786 0.058262 1.23308e-21)
(1.04929 0.0549609 1.99478e-21)
(1.05051 0.0515745 -1.14025e-21)
(1.05151 0.0481206 4.43027e-22)
(0.961123 0.0530481 1.05736e-21)
(0.962002 0.0553278 -6.30504e-22)
(0.962944 0.0575696 -1.21385e-21)
(0.963957 0.0597995 3.87133e-22)
(0.965084 0.0619807 0)
(0.96633 0.0641397 0)
(0.96772 0.0662586 0)
(0.969251 0.0683 6.21166e-22)
(0.970935 0.0703109 1.16878e-21)
(0.972781 0.0722505 -5.86242e-22)
(0.974777 0.0740699 0)
(0.976926 0.0757942 -1.39425e-21)
(0.979246 0.0774392 9.30208e-22)
(0.981711 0.0789211 7.97649e-22)
(0.984296 0.080224 -5.56671e-22)
(0.987021 0.0813788 1.46829e-21)
(0.989885 0.082375 -4.30973e-22)
(0.992855 0.0831666 2.16185e-22)
(0.995887 0.0837267 7.40082e-23)
(0.998988 0.0840712 -1.53969e-22)
(1.00216 0.0842002 1.55509e-22)
(1.00539 0.0841038 0)
(1.00862 0.0837576 -2.99315e-22)
(1.01181 0.0831642 -8.17784e-22)
(1.01497 0.0823369 3.48999e-22)
(1.0181 0.0812765 0)
(1.02117 0.0799838 -6.61137e-22)
(1.02417 0.0784643 -6.90401e-22)
(1.02702 0.0767338 0)
(1.02974 0.0748082 -9.34889e-22)
(1.03234 0.0726885 -3.05983e-21)
(1.0348 0.0703841 3.24181e-21)
(1.03711 0.0679061 -2.31316e-21)
(1.03924 0.0652753 6.08562e-22)
(1.04118 0.0625219 0)
(1.04293 0.0596522 -1.42636e-21)
(1.0445 0.0566638 1.45219e-21)
(1.04588 0.053572 0)