/*--------------------------------*- C++ -*----------------------------------*\
| =========                 |                                                 |
| \\      /  F ield         | OpenFOAM: The Open Source CFD Toolbox           |
|  \\    /   O peration     | Version:  3.0.1                                 |
|   \\  /    A nd           | Web:      www.OpenFOAM.org                      |
|    \\/     M anipulation  |                                                 |
\*---------------------------------------------------------------------------*/
FoamFile
{
    version     2.0;
    format      ascii;
    class       volScalarField;
    location    "500";
    object      nut;
}
// * * * * * * * * * * * * * * * * * * * * * * * * * * * * * * * * * * * * * //

dimensions      [0 2 -1 0 0 0 0];

internalField   nonuniform List<scalar> 
58000
(
0.000770831
0.000670828
0.000582444
0.00053111
0.00049583
0.000466676
0.000446266
0.000428651
0.000416933
0.000409799
0.000404505
0.000401446
0.000400467
0.00039985
0.000399702
0.000400415
0.000401938
0.000403971
0.000406312
0.00040898
0.000412001
0.000415205
0.000418616
0.000422019
0.00042558
0.000428963
0.000432365
0.000435749
0.000438965
0.000442117
0.000444948
0.000447587
0.000449975
0.000452052
0.000453857
0.000455041
0.000455395
0.00045521
0.000454493
0.000455237
0.00295926
0.00264782
0.00230271
0.00198466
0.00172533
0.0015176
0.00135931
0.00123311
0.00113643
0.00106431
0.00100708
0.000963732
0.000931891
0.000905248
0.000880092
0.000860094
0.000845173
0.000832292
0.00082035
0.000810846
0.000804274
0.000798831
0.000793955
0.000789329
0.000786602
0.000784202
0.000781827
0.000779414
0.000776777
0.000774894
0.000773067
0.000769826
0.000765285
0.000759733
0.000753635
0.000745877
0.000737075
0.00072836
0.000720525
0.000718001
0.00518537
0.00481464
0.00437879
0.00391592
0.00349306
0.00312854
0.00283888
0.00260045
0.00240746
0.0022568
0.00213451
0.00203322
0.00195666
0.00189527
0.0018417
0.00179955
0.0017679
0.0017417
0.00171859
0.0017004
0.00168737
0.0016764
0.00166622
0.00165626
0.00164912
0.00164156
0.00163279
0.00162308
0.00161244
0.00160343
0.00159439
0.00158484
0.00157479
0.00156387
0.00155182
0.00153707
0.00152024
0.00150315
0.00148746
0.00147999
0.00741163
0.00700483
0.00650482
0.00597181
0.00545788
0.00497757
0.00457106
0.00422217
0.00393122
0.00369937
0.00350435
0.0033413
0.00321489
0.00311174
0.00302213
0.00295077
0.00289554
0.00284914
0.00280814
0.00277494
0.00274962
0.00272777
0.00270584
0.00268354
0.0026661
0.00265035
0.00263442
0.00261803
0.00260062
0.00258478
0.0025684
0.00255066
0.00253168
0.00251155
0.00249114
0.00246768
0.00244146
0.00241455
0.00238933
0.00237283
0.00961202
0.00918736
0.00865605
0.00808111
0.00750658
0.0069576
0.00646992
0.00603293
0.00565441
0.00534339
0.00507554
0.00484696
0.00466579
0.00451555
0.00438373
0.00427692
0.00419252
0.0041206
0.00405619
0.00400246
0.00395887
0.00392025
0.00388404
0.00384897
0.00382141
0.00379544
0.00376871
0.00374118
0.00371265
0.00368808
0.0036628
0.00363555
0.00360641
0.00357556
0.00354482
0.00351079
0.00347347
0.00343508
0.00339856
0.0033708
0.0117837
0.0113489
0.0108017
0.0102009
0.00959396
0.00899814
0.00845484
0.00795607
0.00750843
0.00712928
0.00679524
0.00650374
0.0062674
0.00606839
0.00589193
0.00574604
0.00562826
0.00552693
0.00543442
0.00535538
0.00529123
0.00523453
0.00518226
0.00513071
0.00508728
0.00504783
0.00500881
0.00496979
0.00492906
0.00489173
0.00485507
0.00481738
0.00477708
0.00473434
0.00469168
0.0046455
0.00459559
0.00454429
0.00449491
0.00445402
0.0139302
0.0134897
0.0129353
0.0123213
0.0116959
0.0110701
0.0104895
0.0099427
0.00944377
0.00901132
0.00862219
0.00827376
0.00798528
0.0077386
0.00751828
0.00733193
0.00717819
0.00704327
0.00692076
0.00681567
0.00672986
0.0066522
0.00657872
0.00650858
0.00644981
0.00639551
0.00634169
0.00628762
0.00623335
0.00618292
0.00613336
0.00608298
0.00602952
0.00597324
0.00591702
0.00585725
0.00579342
0.00572794
0.00566434
0.00560883
0.0160554
0.0156115
0.0150544
0.0144345
0.0137992
0.0131558
0.012549
0.0119705
0.0114328
0.010955
0.0105186
0.010124
0.00979008
0.00949914
0.00923429
0.00900824
0.00881977
0.00865272
0.00849994
0.00836768
0.00825595
0.00815567
0.00806117
0.00797151
0.00789351
0.00782231
0.00775317
0.00768342
0.00761282
0.0075482
0.00748453
0.0074197
0.00735162
0.00728053
0.00720952
0.00713499
0.00705616
0.00697543
0.00689646
0.00682509
0.0181628
0.0177169
0.0171594
0.0165376
0.0158975
0.015245
0.0146217
0.0140214
0.0134531
0.0129433
0.01247
0.0120341
0.0116597
0.011329
0.0110246
0.0107614
0.0105401
0.0103412
0.0101575
0.00999587
0.00985838
0.00973545
0.00961869
0.0095068
0.00940967
0.00932021
0.00923254
0.00914627
0.00905888
0.00897827
0.00889877
0.00881713
0.00873373
0.00864714
0.00856046
0.00847023
0.00837545
0.00827853
0.00818321
0.00809495
0.0202554
0.0198085
0.0192521
0.0186306
0.0179873
0.0173319
0.0166994
0.016085
0.0154956
0.0149602
0.014456
0.0139885
0.0135805
0.013215
0.012875
0.0125767
0.012321
0.012091
0.0118779
0.0116895
0.0115262
0.0113782
0.0112392
0.0111053
0.0109865
0.0108783
0.010772
0.0106674
0.0105619
0.0104639
0.0103677
0.0102693
0.0101694
0.0100663
0.00996303
0.00985613
0.00974453
0.00963059
0.00951808
0.00941211
0.0223358
0.0218885
0.0213344
0.0207153
0.0200725
0.0194157
0.0187776
0.0181537
0.01755
0.0169941
0.0164678
0.0159741
0.0155376
0.0151406
0.0147688
0.0144391
0.0141533
0.0138949
0.013653
0.013436
0.013247
0.0130755
0.0129123
0.0127568
0.0126168
0.0124876
0.0123623
0.0122376
0.0121135
0.0119967
0.0118838
0.0117685
0.0116516
0.0115324
0.0114112
0.0112868
0.0111576
0.011026
0.0108957
0.0107714
0.0244061
0.0239586
0.0234074
0.0227919
0.0221515
0.0214955
0.0208542
0.0202227
0.0196107
0.019041
0.0184969
0.0179803
0.0175192
0.0170983
0.0166998
0.0163423
0.0160284
0.0157408
0.0154714
0.015229
0.0150151
0.0148183
0.0146321
0.0144529
0.0142921
0.0141423
0.0139974
0.0138528
0.0137081
0.0135732
0.0134427
0.0133091
0.0131747
0.0130378
0.0128989
0.0127567
0.0126098
0.0124602
0.0123116
0.0121685
0.0264678
0.0260205
0.0254723
0.0248611
0.0242243
0.0235707
0.0229289
0.0222938
0.0216755
0.0210955
0.0205381
0.0200041
0.0195231
0.0190803
0.0186579
0.0182754
0.0179364
0.0176234
0.0173279
0.0170588
0.0168213
0.0166011
0.0163907
0.0161893
0.0160055
0.0158344
0.0156701
0.0155062
0.0153418
0.0151882
0.0150394
0.0148873
0.0147344
0.0145792
0.0144222
0.0142622
0.0140972
0.0139294
0.0137622
0.0135999
0.0285225
0.0280752
0.0275301
0.0269235
0.0262911
0.025641
0.0250003
0.024364
0.0237417
0.023154
0.022586
0.0220389
0.0215416
0.0210795
0.0206348
0.0202297
0.0198678
0.0195329
0.0192138
0.0189206
0.0186582
0.0184159
0.0181833
0.0179599
0.0177542
0.0175613
0.0173754
0.0171925
0.017009
0.0168364
0.0166691
0.0164983
0.016326
0.0161529
0.015978
0.0157999
0.0156167
0.0154304
0.0152444
0.0150627
0.0305718
0.0301236
0.0295817
0.0289799
0.0283523
0.0277064
0.0270681
0.0264321
0.0258077
0.0252143
0.0246368
0.0240804
0.02357
0.0230908
0.0226297
0.0222056
0.0218227
0.0214642
0.0211222
0.0208073
0.0205221
0.0202565
0.020003
0.0197578
0.0195309
0.0193173
0.0191101
0.0189083
0.0187055
0.0185129
0.0183276
0.0181388
0.017948
0.0177567
0.0175635
0.0173671
0.0171655
0.0169605
0.0167554
0.016554
0.0326125
0.0321652
0.0316271
0.0310306
0.0304082
0.0297671
0.0291319
0.0284976
0.0278727
0.0272758
0.0266921
0.0261274
0.0256059
0.0251138
0.0246383
0.0241976
0.0237961
0.023417
0.0230527
0.0227144
0.0224066
0.0221206
0.0218459
0.0215771
0.0213301
0.0210987
0.0208719
0.0206496
0.0204289
0.0202174
0.0200125
0.0198061
0.0195974
0.0193878
0.0191762
0.0189613
0.0187411
0.0185172
0.0182929
0.0180716
0.034647
0.034201
0.033667
0.033076
0.0324592
0.0318233
0.031192
0.0305601
0.0299359
0.029337
0.0287492
0.0281779
0.0276458
0.0271441
0.0266566
0.0262015
0.0257834
0.0253855
0.0249995
0.0246412
0.0243126
0.0240043
0.0237087
0.0234209
0.0231543
0.0229043
0.0226584
0.0224166
0.0221774
0.0219472
0.0217233
0.0214988
0.0212717
0.0210437
0.0208135
0.0205801
0.0203411
0.0200982
0.0198545
0.0196134
0.0366762
0.0362315
0.0357018
0.0351167
0.0345058
0.0338753
0.0332481
0.0326194
0.0319968
0.0313973
0.0308068
0.0302309
0.0296914
0.0291805
0.0286822
0.0282143
0.0277813
0.0273667
0.0269616
0.0265829
0.0262361
0.025908
0.0255934
0.0252859
0.0249997
0.0247312
0.0244663
0.0242055
0.0239481
0.0236992
0.0234568
0.023214
0.0229685
0.0227219
0.0224731
0.0222211
0.0219634
0.0217015
0.0214385
0.0211774
0.0387003
0.038257
0.0377317
0.0371528
0.0365483
0.0359233
0.0353005
0.0346753
0.034055
0.0334558
0.032864
0.0322849
0.0317396
0.031221
0.0307133
0.0302337
0.0297869
0.0293574
0.0289357
0.0285389
0.0281749
0.0278273
0.0274921
0.0271674
0.0268628
0.0265758
0.0262927
0.0260133
0.025738
0.0254709
0.0252101
0.0249492
0.0246854
0.0244202
0.0241529
0.0238823
0.023606
0.0233252
0.0230428
0.0227619
0.0407191
0.0402774
0.0397568
0.0391843
0.0385875
0.0379673
0.037349
0.0367278
0.0361104
0.0355122
0.0349201
0.0343389
0.0337891
0.0332639
0.0327482
0.0322581
0.0317974
0.0313553
0.0309189
0.0305055
0.0301228
0.0297589
0.0294059
0.0290639
0.0287411
0.0284348
0.0281346
0.0278377
0.0275448
0.0272598
0.0269809
0.0267022
0.0264201
0.0261364
0.0258507
0.0255619
0.0252671
0.0249676
0.0246661
0.0243654
0.0427327
0.0422929
0.0417767
0.0412104
0.0406201
0.0400062
0.0393932
0.0387764
0.0381625
0.0375662
0.0369746
0.0363923
0.0358389
0.0353083
0.0347856
0.0342868
0.0338153
0.0333592
0.0329098
0.0324813
0.0320824
0.0317019
0.0313318
0.0309729
0.0306326
0.0303085
0.0299911
0.0296766
0.029366
0.0290636
0.0287672
0.0284709
0.0281709
0.0278679
0.0275648
0.0272583
0.0269454
0.0266273
0.0263067
0.0259863
0.0447409
0.0443031
0.0437917
0.0432315
0.0426475
0.0420401
0.0414328
0.040821
0.040211
0.0396172
0.0390272
0.0384444
0.0378886
0.037353
0.0368242
0.036318
0.0358387
0.0353714
0.0349075
0.0344643
0.034051
0.0336539
0.0332672
0.0328917
0.0325349
0.032194
0.03186
0.0315281
0.031199
0.0308804
0.0305673
0.030254
0.0299365
0.0296157
0.029295
0.0289705
0.0286394
0.0283029
0.0279634
0.0276235
0.0467435
0.046308
0.0458016
0.0452478
0.0446698
0.0440689
0.0434677
0.0428615
0.0422554
0.0416647
0.041078
0.0404946
0.039938
0.0393971
0.0388625
0.0383493
0.0378614
0.037384
0.0369082
0.0364513
0.0360223
0.0356116
0.0352096
0.0348172
0.0344458
0.0340893
0.0337393
0.0333909
0.0330449
0.0327098
0.03238
0.03205
0.0317156
0.0313778
0.0310394
0.0306971
0.0303479
0.029993
0.0296348
0.0292756
0.0487398
0.0483069
0.047806
0.0472598
0.046687
0.0460924
0.0454976
0.0448983
0.0442954
0.0437073
0.0431228
0.0425403
0.0419827
0.0414387
0.0408994
0.0403798
0.0398839
0.039397
0.0389105
0.0384416
0.037999
0.0375747
0.0371584
0.036751
0.0363647
0.0359929
0.0356275
0.0352633
0.034901
0.0345498
0.0342036
0.0338572
0.0335065
0.033153
0.0327966
0.0324364
0.0320693
0.0316963
0.0313195
0.0309413
0.0507294
0.0502994
0.0498038
0.0492638
0.0486975
0.0481098
0.0475212
0.0469277
0.0463296
0.0457448
0.0451627
0.0445816
0.0440236
0.0434774
0.0429344
0.042409
0.0419054
0.0414096
0.0409134
0.0404334
0.0399786
0.0395416
0.0391118
0.0386904
0.0382899
0.0379033
0.037523
0.0371435
0.0367656
0.0363987
0.0360366
0.0356742
0.0353073
0.0349374
0.0345642
0.0341867
0.0338022
0.0334114
0.0330165
0.0326196
0.0527114
0.0522847
0.0517957
0.0512608
0.050701
0.0501206
0.0495388
0.048951
0.048358
0.047777
0.0471978
0.0466186
0.0460608
0.0455135
0.0449671
0.0444362
0.0439252
0.0434207
0.0429155
0.0424256
0.0419595
0.0415106
0.0410682
0.0406336
0.0402195
0.0398188
0.0394242
0.0390299
0.0386372
0.0382551
0.0378776
0.0374995
0.0371167
0.0367307
0.036341
0.0359468
0.0355453
0.0351372
0.0347246
0.0343094
0.054685
0.0542618
0.053778
0.0532495
0.0526969
0.0521244
0.0515508
0.0509679
0.0503803
0.0498038
0.0492277
0.0486511
0.0480938
0.0475471
0.0469973
0.0464611
0.0459427
0.0454286
0.0449159
0.0444169
0.0439404
0.0434803
0.0430261
0.0425791
0.0421522
0.0417379
0.0413294
0.0409212
0.0405142
0.0401176
0.0397251
0.0393319
0.0389337
0.0385319
0.0381262
0.0377157
0.0372976
0.0368726
0.0364427
0.0360097
0.0566494
0.056231
0.0557514
0.0552295
0.0546846
0.0541201
0.0535535
0.052977
0.0523956
0.0518252
0.0512517
0.050679
0.0501212
0.0495739
0.0490238
0.0484826
0.0479576
0.0474352
0.0469142
0.0464063
0.04592
0.0454494
0.0449842
0.0445256
0.0440864
0.0436591
0.0432372
0.0428159
0.0423955
0.0419851
0.0415782
0.0411703
0.040757
0.04034
0.0399187
0.0394923
0.0390582
0.0386168
0.0381701
0.0377196
0.0586032
0.0581885
0.0577147
0.0572002
0.0566634
0.0561083
0.0555476
0.0549777
0.0544028
0.0538373
0.0532676
0.0526981
0.0521417
0.0515937
0.0510423
0.0504992
0.0499686
0.0494376
0.0489087
0.0483924
0.0478969
0.0474166
0.0469411
0.0464718
0.0460211
0.0455813
0.0451455
0.0447131
0.0442803
0.0438563
0.0434355
0.0430134
0.0425857
0.0421538
0.0417174
0.0412758
0.0408261
0.0403688
0.0399057
0.0394384
0.0605459
0.060135
0.0596677
0.0591611
0.0586325
0.0580853
0.0575319
0.0569694
0.0564026
0.055841
0.0552755
0.0547091
0.0541557
0.0536065
0.0530531
0.0525061
0.0519698
0.0514328
0.0508972
0.0503736
0.0498698
0.0493807
0.0488958
0.0484165
0.0479551
0.0475038
0.047056
0.0466119
0.0461669
0.0457302
0.0452961
0.0448602
0.0444185
0.0439724
0.0435215
0.0430651
0.0426004
0.0421278
0.0416489
0.0411654
0.062477
0.0620703
0.0616097
0.0611117
0.0605925
0.060052
0.0595061
0.0589513
0.0583912
0.0578351
0.0572755
0.056711
0.0561593
0.0556115
0.0550566
0.0545044
0.053961
0.0534196
0.0528787
0.0523488
0.0518376
0.0513404
0.050847
0.0503586
0.0498873
0.0494255
0.0489666
0.0485113
0.0480547
0.0476057
0.0471588
0.0467097
0.0462544
0.0457947
0.0453299
0.0448594
0.0443803
0.0438929
0.0433989
0.0428996
0.0643957
0.0639934
0.06354
0.0630516
0.0625394
0.0620071
0.0614693
0.0609237
0.0603694
0.0598189
0.059264
0.0587031
0.0581527
0.0576044
0.0570479
0.0564934
0.0559443
0.055398
0.0548523
0.0543169
0.0537992
0.0532948
0.0527936
0.052297
0.0518167
0.0513451
0.050876
0.0504101
0.0499425
0.0494819
0.0490226
0.0485605
0.0480921
0.0476197
0.0471419
0.0466579
0.046165
0.0456635
0.0451549
0.0446406
0.066301
0.0659035
0.0654574
0.0649769
0.0644733
0.0639498
0.0634206
0.0628829
0.0623362
0.0617929
0.0612419
0.0606856
0.0601367
0.0595865
0.0590275
0.0584683
0.0579166
0.0573667
0.0568171
0.0562769
0.0557537
0.0552429
0.0547349
0.0542308
0.0537423
0.0532617
0.0527831
0.0523073
0.0518294
0.0513577
0.0508866
0.0504113
0.0499314
0.0494471
0.0489569
0.04846
0.0479539
0.0474387
0.0469162
0.0463876
0.0681921
0.0677997
0.0673621
0.0668887
0.0663938
0.0658799
0.0653604
0.0648294
0.0642912
0.0637528
0.0632078
0.0626541
0.0621065
0.0615571
0.0609957
0.0604324
0.0598776
0.0593248
0.058772
0.0582281
0.0577
0.0571838
0.0566697
0.056159
0.0556631
0.0551743
0.0546869
0.0542019
0.0537144
0.0532324
0.0527503
0.0522635
0.0517722
0.0512762
0.050774
0.0502648
0.049746
0.049218
0.0486821
0.04814
0.0700679
0.0696803
0.0692501
0.0687855
0.0683003
0.0677969
0.067285
0.0667618
0.0662306
0.0656983
0.0651582
0.0646088
0.0640624
0.0635117
0.0629464
0.0623824
0.061826
0.0612713
0.0607163
0.0601694
0.0596374
0.0591165
0.0585972
0.0580808
0.0575781
0.0570819
0.0565865
0.056093
0.0555965
0.0551049
0.0546127
0.0541153
0.0536131
0.0531061
0.0525924
0.0520715
0.0515407
0.0510003
0.050452
0.049897
0.0719277
0.0715448
0.0711219
0.0706668
0.070192
0.0696971
0.0691942
0.0686805
0.0681557
0.0676303
0.0670941
0.0665461
0.0659997
0.0654467
0.064882
0.064318
0.0637611
0.0632054
0.062649
0.0621001
0.0615651
0.0610404
0.0605167
0.0599952
0.0594866
0.0589836
0.058481
0.0579797
0.0574749
0.0569744
0.0564727
0.0559656
0.0554533
0.0549358
0.0544114
0.0538793
0.0533371
0.0527851
0.0522249
0.0516582
0.0737709
0.0733925
0.0729767
0.0725317
0.0720654
0.0715803
0.0710877
0.0705816
0.0700651
0.0695449
0.0690114
0.0684668
0.0679206
0.0673663
0.066802
0.0662388
0.0656822
0.0651263
0.0645696
0.0640195
0.0634823
0.0629546
0.0624273
0.0619016
0.0613877
0.0608787
0.0603694
0.0598609
0.0593483
0.0588396
0.0583294
0.0578133
0.0572916
0.0567644
0.0562298
0.0556873
0.0551343
0.0545714
0.0540002
0.0534227
0.0755966
0.0752225
0.0748131
0.0743768
0.0739202
0.0734461
0.0729619
0.0724652
0.0719554
0.0714388
0.0709098
0.0703671
0.0698196
0.0692676
0.0687055
0.0681441
0.0675886
0.0670335
0.0664772
0.0659268
0.0653883
0.0648584
0.0643282
0.0637989
0.0632805
0.0627662
0.0622509
0.0617358
0.0612156
0.0606999
0.0601819
0.0596576
0.0591272
0.058591
0.058047
0.0574946
0.0569316
0.0563585
0.0557772
0.05519
0.0774042
0.0770341
0.0766307
0.0762023
0.0757562
0.075291
0.074817
0.0743282
0.0738235
0.0733121
0.0727863
0.0722438
0.0716997
0.0711509
0.070592
0.0700333
0.0694798
0.0689263
0.0683712
0.0678214
0.0672826
0.0667511
0.0662186
0.0656864
0.0651642
0.0646452
0.0641247
0.0636037
0.063077
0.0625546
0.0620294
0.0614976
0.0609594
0.0604148
0.0598619
0.0593003
0.0587279
0.0581454
0.0575549
0.0569593
0.0791931
0.0788269
0.0784289
0.0780074
0.0775698
0.077115
0.0766499
0.0761679
0.0756707
0.075162
0.0746382
0.0741008
0.0735609
0.0730161
0.0724612
0.071906
0.0713552
0.070804
0.0702509
0.0697027
0.0691646
0.0686321
0.0680978
0.0675633
0.0670378
0.0665148
0.0659897
0.0654636
0.0649313
0.0644027
0.063871
0.0633324
0.0627873
0.062235
0.0616737
0.0611034
0.0605223
0.0599312
0.0593325
0.05873
0.0809625
0.0806002
0.0802075
0.0797922
0.0793616
0.0789149
0.0784581
0.0779853
0.0774952
0.0769901
0.0764705
0.0759381
0.0754031
0.0748629
0.0743127
0.0737616
0.0732142
0.072666
0.0721156
0.0715697
0.0710344
0.0705004
0.0699647
0.0694285
0.0689004
0.0683741
0.0678451
0.0673144
0.0667772
0.0662431
0.0657055
0.065161
0.0646109
0.0640504
0.0634812
0.0629029
0.0623138
0.061715
0.0611093
0.0605013
0.0827119
0.0823535
0.0819658
0.0815565
0.0811325
0.0806928
0.0802431
0.0797778
0.0792949
0.0787958
0.0782821
0.0777555
0.0772261
0.0766911
0.076146
0.0755996
0.0750563
0.0745116
0.0739644
0.0734212
0.0728876
0.0723541
0.0718182
0.0712811
0.0707512
0.0702221
0.0696898
0.0691552
0.0686136
0.0680746
0.0675317
0.0669818
0.066426
0.0658591
0.065283
0.0646976
0.0641014
0.0634958
0.0628843
0.0622726
0.0844405
0.084086
0.0837035
0.0833001
0.0828823
0.0824493
0.0820064
0.0815481
0.0810721
0.0805799
0.0800727
0.0795527
0.0790293
0.0785001
0.0779607
0.0774196
0.0768808
0.0763402
0.0757968
0.0752566
0.0747251
0.0741927
0.0736574
0.0731203
0.0725892
0.072058
0.0715228
0.0709848
0.0704394
0.0698962
0.0693487
0.0687938
0.0682328
0.0676603
0.0670781
0.0664865
0.0658841
0.0652727
0.0646566
0.0640431
0.0861474
0.0857971
0.0854198
0.0850223
0.0846108
0.0841844
0.083748
0.0832966
0.0828277
0.0823425
0.0818424
0.0813294
0.0808125
0.0802894
0.0797562
0.0792207
0.078687
0.0781511
0.077612
0.0770755
0.0765464
0.0760158
0.0754817
0.0749456
0.0744137
0.0738807
0.0733431
0.0728018
0.0722534
0.0717068
0.0711554
0.0705964
0.0700307
0.0694533
0.0688659
0.0682687
0.0676609
0.0670447
0.0664253
0.065812
0.0878318
0.0874859
0.087114
0.0867226
0.0863173
0.0858976
0.0854679
0.0850233
0.0845616
0.0840835
0.0835907
0.083085
0.082575
0.0820585
0.0815318
0.0810024
0.0804742
0.0799434
0.0794094
0.0788775
0.0783511
0.0778223
0.0772902
0.0767568
0.0762235
0.075689
0.0751498
0.0746048
0.0740547
0.0735055
0.072951
0.0723885
0.0718189
0.0712373
0.0706453
0.0700433
0.069431
0.068811
0.0681896
0.0675786
0.0894931
0.0891517
0.0887854
0.0884001
0.0880013
0.0875883
0.0871653
0.0867277
0.0862733
0.0858026
0.0853173
0.0848192
0.0843163
0.0838067
0.0832869
0.082764
0.0822416
0.0817165
0.0811881
0.0806626
0.0801381
0.0796114
0.0790811
0.0785495
0.0780166
0.0774817
0.0769425
0.0763948
0.0758427
0.0752914
0.0747346
0.0741694
0.0735966
0.0730114
0.0724154
0.0718095
0.0711933
0.0705704
0.0699485
0.0693418
0.0911305
0.0907938
0.0904331
0.0900541
0.0896619
0.0892558
0.0888398
0.0884093
0.0879623
0.0874992
0.0870215
0.0865312
0.0860357
0.0855333
0.0850206
0.0845046
0.0839885
0.0834695
0.0829468
0.0824264
0.0819055
0.0813817
0.0808539
0.0803242
0.0797921
0.0792571
0.0787162
0.0781688
0.0776161
0.0770636
0.0765052
0.0759385
0.075363
0.0747747
0.0741754
0.073566
0.0729468
0.072322
0.0717008
0.0711007
0.0927431
0.0924114
0.0920566
0.091684
0.0912985
0.0908994
0.0904904
0.0900672
0.0896278
0.0891725
0.0887027
0.0882203
0.0877325
0.0872375
0.0867324
0.0862235
0.0857142
0.0852016
0.0846851
0.0841698
0.0836529
0.0831326
0.0826078
0.0820803
0.0815495
0.0810151
0.0804742
0.0799269
0.0793742
0.0788211
0.078262
0.0776955
0.0771171
0.0765259
0.0759239
0.0753118
0.0746905
0.0740647
0.0734455
0.0728542
0.0943304
0.0940038
0.0936549
0.093289
0.0929104
0.0925184
0.0921167
0.0917009
0.0912693
0.0908218
0.0903602
0.0898859
0.089406
0.0889187
0.0884214
0.08792
0.0874179
0.0869124
0.0864027
0.0858923
0.0853797
0.0848632
0.0843424
0.0838172
0.083288
0.0827547
0.0822146
0.0816681
0.0811159
0.0805629
0.0800035
0.0794364
0.0788566
0.0782637
0.0776598
0.0770459
0.0764231
0.0757974
0.0751815
0.074601
0.0958916
0.0955703
0.0952276
0.0948684
0.0944968
0.0941121
0.0937177
0.0933097
0.092886
0.0924466
0.0919932
0.0915273
0.0910555
0.0905762
0.0900868
0.0895934
0.0890989
0.088601
0.0880997
0.0875934
0.0870848
0.0865726
0.0860573
0.0855338
0.0850064
0.0844747
0.0839362
0.0833913
0.0828405
0.0822881
0.0817287
0.0811613
0.0805809
0.0799871
0.0793821
0.0787671
0.0781438
0.077519
0.0769076
0.0763401
0.0974262
0.0971104
0.096774
0.0964216
0.0960571
0.0956799
0.095293
0.0948928
0.0944773
0.0940462
0.0936012
0.0931438
0.0926802
0.0922091
0.091728
0.0912428
0.0907563
0.0902665
0.0897718
0.0892708
0.088767
0.0882592
0.0877481
0.087228
0.0867034
0.0861739
0.0856379
0.0850955
0.0845473
0.083996
0.0834368
0.0828696
0.0822892
0.0816953
0.0810899
0.0804746
0.0798515
0.0792284
0.0786227
0.0780699
0.0989336
0.0986234
0.0982934
0.097948
0.0975907
0.0972211
0.0968419
0.0964497
0.0960425
0.09562
0.0951836
0.0947348
0.0942796
0.0938168
0.0933443
0.0928675
0.0923894
0.0919091
0.0914198
0.0909242
0.0904254
0.0899223
0.0894154
0.0888993
0.0883782
0.0878511
0.0873188
0.0867801
0.0862363
0.0856855
0.0851266
0.0845603
0.0839807
0.0833874
0.0827824
0.0821675
0.0815453
0.0809247
0.0803256
0.0797892
0.100413
0.100109
0.0997854
0.099447
0.0990971
0.0987351
0.0983637
0.0979797
0.0975812
0.0971676
0.0967397
0.0962996
0.0958528
0.0953986
0.0949349
0.0944669
0.0939972
0.0935247
0.0930421
0.0925527
0.0920595
0.0915613
0.0910585
0.0905472
0.0900305
0.0895073
0.0889786
0.088444
0.0879035
0.0873548
0.0867977
0.0862329
0.0856547
0.0850626
0.0844587
0.0838448
0.0832241
0.0826068
0.0820151
0.0814965
0.101865
0.101566
0.10125
0.100918
0.100576
0.100221
0.099858
0.0994823
0.0990928
0.0986886
0.0982691
0.0978375
0.0973994
0.096954
0.0964994
0.0960404
0.0955797
0.0951144
0.0946387
0.0941559
0.0936687
0.0931757
0.0926764
0.0921712
0.0916597
0.0911414
0.0906177
0.0900875
0.0895501
0.089004
0.0884492
0.0878866
0.0873104
0.0867202
0.0861179
0.0855057
0.0848871
0.0842736
0.0836901
0.0831903
0.103288
0.102995
0.102685
0.102361
0.102026
0.10168
0.101324
0.100957
0.100576
0.100183
0.099771
0.0993479
0.0989186
0.0984823
0.098037
0.0975876
0.0971371
0.096678
0.096209
0.0957332
0.0952528
0.0947658
0.0942716
0.0937716
0.0932651
0.0927524
0.0922359
0.09171
0.0911751
0.0906319
0.0900802
0.0895205
0.088947
0.0883593
0.0877593
0.0871492
0.0865334
0.0859241
0.0853492
0.0848693
0.104682
0.104396
0.104093
0.103776
0.103448
0.103109
0.102762
0.102403
0.102031
0.101647
0.101244
0.10083
0.10041
0.0999829
0.0995474
0.0991078
0.0986656
0.0982138
0.0977523
0.0972841
0.0968115
0.0963307
0.0958422
0.0953475
0.0948454
0.094339
0.0938285
0.0933077
0.0927764
0.0922372
0.09169
0.091134
0.0905638
0.0899791
0.0893819
0.0887745
0.0881618
0.0875573
0.0869915
0.086532
0.106047
0.105767
0.105471
0.105161
0.104841
0.10451
0.104171
0.10382
0.103457
0.103082
0.102688
0.102283
0.101873
0.101456
0.10103
0.100601
0.100166
0.0997214
0.0992678
0.0988079
0.0983449
0.0978697
0.097387
0.0968981
0.0964018
0.0959013
0.0953967
0.0948813
0.0943551
0.0938208
0.0932787
0.0927268
0.0921601
0.0915788
0.0909848
0.0903806
0.0897716
0.0891721
0.0886157
0.0881769
0.107383
0.107109
0.10682
0.106518
0.106205
0.105882
0.105551
0.105208
0.104854
0.104487
0.104103
0.103708
0.103307
0.1029
0.102485
0.102065
0.101637
0.1012
0.100755
0.100304
0.099849
0.0993811
0.098905
0.0984223
0.0979326
0.0974386
0.0969402
0.0964308
0.0959103
0.0953816
0.0948463
0.0942978
0.0937349
0.0931574
0.0925671
0.0919667
0.0913617
0.0907677
0.0902208
0.0898028
0.108689
0.108422
0.108139
0.107844
0.10754
0.107225
0.106901
0.106567
0.106222
0.105864
0.105489
0.105104
0.104713
0.104316
0.103911
0.103498
0.103078
0.10265
0.102214
0.101772
0.101325
0.100865
0.100396
0.0999191
0.0994373
0.0989506
0.0984588
0.0979557
0.0974411
0.0969183
0.0963887
0.0958452
0.0952869
0.0947138
0.0941279
0.0935318
0.0929313
0.092343
0.0918057
0.0914085
0.109966
0.109705
0.109429
0.109142
0.108845
0.108538
0.108223
0.107897
0.10756
0.107211
0.106846
0.10647
0.106089
0.105703
0.105306
0.104902
0.10449
0.104071
0.103644
0.103213
0.102773
0.10232
0.101859
0.10139
0.100916
0.100437
0.0999521
0.0994553
0.098947
0.0984304
0.0979065
0.0973685
0.0968154
0.0962474
0.0956664
0.0950751
0.0944796
0.0938973
0.0933695
0.0929927
0.111213
0.110958
0.110689
0.11041
0.11012
0.109821
0.109514
0.109197
0.108869
0.108529
0.108173
0.107807
0.107434
0.107058
0.10667
0.106275
0.105872
0.105462
0.105046
0.104623
0.104192
0.103748
0.103295
0.102835
0.10237
0.101898
0.10142
0.100929
0.100427
0.0999175
0.0993996
0.0988672
0.0983197
0.0977574
0.0971819
0.0965959
0.0960059
0.0954298
0.0949115
0.0945545
0.11243
0.112181
0.11192
0.111648
0.111366
0.111075
0.110776
0.110468
0.110148
0.109818
0.109472
0.109114
0.10875
0.108382
0.108004
0.107618
0.107224
0.106824
0.106419
0.106004
0.105581
0.105147
0.104703
0.104252
0.103797
0.103334
0.10286
0.102376
0.101881
0.10138
0.100867
0.100341
0.0997993
0.0992432
0.0986737
0.0980937
0.0975096
0.09694
0.0964309
0.096093
0.113617
0.113375
0.113121
0.112856
0.112583
0.1123
0.112009
0.111708
0.111398
0.111077
0.110741
0.110393
0.110037
0.109676
0.109308
0.108931
0.108547
0.108156
0.10776
0.107354
0.10694
0.106516
0.106081
0.105641
0.105193
0.104738
0.104271
0.103794
0.103307
0.102813
0.102308
0.101788
0.101254
0.100704
0.100142
0.0995679
0.0989901
0.0984272
0.0979271
0.0976077
0.114775
0.11454
0.114293
0.114035
0.113769
0.113494
0.113211
0.11292
0.112618
0.112307
0.111982
0.111642
0.111295
0.110942
0.110583
0.110215
0.109841
0.109458
0.109071
0.108674
0.108269
0.107854
0.107429
0.106999
0.10656
0.106112
0.105653
0.105184
0.104704
0.104219
0.103721
0.103209
0.102682
0.10214
0.101585
0.101018
0.100447
0.0998911
0.0993998
0.0990976
0.115903
0.115675
0.115435
0.115185
0.114926
0.114659
0.114385
0.114101
0.113808
0.113506
0.113191
0.112861
0.112523
0.112179
0.111829
0.111471
0.111105
0.110731
0.110352
0.109965
0.109569
0.109164
0.10875
0.108328
0.107897
0.107457
0.107007
0.106545
0.106074
0.105597
0.105108
0.104604
0.104086
0.103552
0.103004
0.102445
0.10188
0.101331
0.100848
0.100562
0.117002
0.11678
0.116547
0.116305
0.116054
0.115795
0.115528
0.115253
0.114969
0.114676
0.114371
0.11405
0.113721
0.113386
0.113046
0.112697
0.11234
0.111975
0.111603
0.111226
0.11084
0.110445
0.11004
0.109627
0.109205
0.108774
0.108332
0.10788
0.107418
0.106949
0.106468
0.105973
0.105463
0.104938
0.104398
0.103846
0.10329
0.102748
0.102273
0.102002
0.118071
0.117856
0.117631
0.117396
0.117153
0.116901
0.116643
0.116376
0.116101
0.115817
0.115521
0.11521
0.114891
0.114565
0.114233
0.113894
0.113546
0.113191
0.112827
0.112459
0.112082
0.111697
0.111301
0.110897
0.110485
0.110063
0.10963
0.109187
0.108734
0.108274
0.107803
0.107317
0.106815
0.106298
0.105767
0.105224
0.104675
0.10414
0.103672
0.103415
0.119112
0.118904
0.118685
0.118458
0.118222
0.117979
0.117728
0.11747
0.117203
0.116928
0.116642
0.116341
0.116031
0.115715
0.115392
0.115061
0.114724
0.114377
0.114023
0.113663
0.113296
0.11292
0.112534
0.112139
0.111736
0.111323
0.1109
0.110466
0.110023
0.109573
0.109111
0.108634
0.108142
0.107634
0.107111
0.106576
0.106035
0.105507
0.105047
0.104802
0.120125
0.119923
0.119711
0.119491
0.119263
0.119028
0.118785
0.118535
0.118277
0.118011
0.117734
0.117444
0.117144
0.116836
0.11652
0.1162
0.115872
0.115536
0.11519
0.114839
0.114482
0.114115
0.113739
0.113353
0.112959
0.112556
0.112143
0.111719
0.111286
0.110846
0.110393
0.109926
0.109442
0.108944
0.10843
0.107904
0.107371
0.10685
0.106397
0.106163
0.121109
0.120914
0.120709
0.120496
0.120276
0.120048
0.119813
0.119571
0.119322
0.119064
0.118798
0.118519
0.118227
0.117928
0.117622
0.117311
0.116993
0.116666
0.11633
0.115987
0.115639
0.115283
0.114916
0.11454
0.114155
0.113761
0.113358
0.112945
0.112525
0.112094
0.11165
0.111191
0.110717
0.110228
0.109724
0.109207
0.108682
0.108168
0.107722
0.107498
0.122065
0.121877
0.121679
0.121473
0.12126
0.12104
0.120814
0.12058
0.120338
0.12009
0.119832
0.119564
0.119282
0.118993
0.118696
0.118394
0.118085
0.117767
0.117441
0.117108
0.116769
0.116422
0.116066
0.115699
0.115324
0.11494
0.114547
0.114144
0.113735
0.113314
0.112879
0.11243
0.111966
0.111487
0.110992
0.110484
0.109967
0.109461
0.109021
0.108805
0.122994
0.122812
0.122621
0.122423
0.122217
0.122005
0.121786
0.12156
0.121327
0.121087
0.120839
0.12058
0.120309
0.120029
0.119741
0.119449
0.119149
0.118841
0.118525
0.118201
0.117871
0.117534
0.117188
0.116831
0.116466
0.116092
0.115709
0.115318
0.114919
0.114507
0.114082
0.113643
0.113189
0.112719
0.112234
0.111735
0.111228
0.110729
0.110294
0.110085
0.123896
0.12372
0.123536
0.123345
0.123147
0.122942
0.122731
0.122513
0.122289
0.122057
0.121818
0.121569
0.121308
0.121038
0.120759
0.120475
0.120185
0.119888
0.119582
0.119268
0.118947
0.118619
0.118282
0.117936
0.117581
0.117218
0.116845
0.116466
0.116076
0.115674
0.115259
0.11483
0.114386
0.113926
0.113451
0.112961
0.112462
0.111971
0.111542
0.111338
0.124771
0.124602
0.124424
0.12424
0.12405
0.123853
0.123649
0.12344
0.123223
0.123
0.12277
0.122531
0.122282
0.12202
0.12175
0.121475
0.121195
0.120907
0.120611
0.120307
0.119995
0.119677
0.11935
0.119014
0.118669
0.118316
0.117954
0.117586
0.117206
0.116815
0.11641
0.115991
0.115556
0.115106
0.114641
0.114161
0.113671
0.113187
0.112762
0.112563
0.12562
0.125457
0.125286
0.125109
0.124926
0.124737
0.124541
0.124339
0.124131
0.123916
0.123695
0.123465
0.123226
0.122974