/*--------------------------------*- C++ -*----------------------------------*\
| =========                 |                                                 |
| \\      /  F ield         | OpenFOAM: The Open Source CFD Toolbox           |
|  \\    /   O peration     | Version:  3.0.1                                 |
|   \\  /    A nd           | Web:      www.OpenFOAM.org                      |
|    \\/     M anipulation  |                                                 |
\*---------------------------------------------------------------------------*/
FoamFile
{
    version     2.0;
    format      ascii;
    class       volScalarField;
    location    "500";
    object      p;
}
// * * * * * * * * * * * * * * * * * * * * * * * * * * * * * * * * * * * * * //

dimensions      [0 2 -2 0 0 0 0];

internalField   nonuniform List<scalar> 
58000
(
0.363566
0.136688
-0.0752352
-0.230155
-0.333601
-0.408167
-0.462905
-0.504405
-0.536817
-0.558568
-0.573727
-0.584289
-0.589837
-0.59302
-0.595864
-0.597816
-0.598098
-0.59817
-0.598477
-0.598376
-0.597168
-0.595893
-0.594911
-0.593817
-0.591924
-0.589325
-0.587049
-0.584913
-0.582555
-0.5796
-0.576238
-0.573234
-0.570447
-0.567615
-0.564534
-0.559867
-0.550966
-0.5408
-0.533719
-0.530081
0.400052
0.322188
0.229228
0.123258
0.0149147
-0.0860238
-0.170869
-0.246128
-0.309439
-0.361442
-0.405694
-0.441385
-0.468215
-0.489121
-0.50524
-0.516727
-0.525213
-0.53182
-0.536844
-0.540324
-0.54267
-0.544414
-0.545527
-0.546036
-0.545734
-0.545214
-0.544394
-0.543213
-0.541651
-0.5396
-0.537533
-0.535311
-0.532825
-0.529966
-0.526574
-0.522703
-0.518117
-0.513742
-0.51114
-0.51121
0.307169
0.253061
0.190808
0.117708
0.0400614
-0.0387934
-0.113469
-0.181209
-0.243566
-0.296475
-0.341863
-0.381026
-0.412345
-0.436984
-0.457468
-0.473805
-0.486105
-0.495704
-0.503543
-0.50978
-0.514372
-0.517706
-0.520262
-0.522202
-0.523468
-0.523929
-0.523874
-0.523462
-0.522718
-0.521643
-0.520118
-0.518274
-0.516185
-0.513831
-0.511209
-0.508262
-0.50494
-0.501413
-0.498103
-0.495021
0.273221
0.240787
0.202184
0.153792
0.0980697
0.0369002
-0.0256644
-0.0869431
-0.146171
-0.199616
-0.248312
-0.292116
-0.328963
-0.359903
-0.386698
-0.408688
-0.426104
-0.440404
-0.452367
-0.462
-0.469472
-0.475401
-0.480225
-0.484058
-0.486832
-0.488727
-0.490006
-0.490751
-0.490971
-0.490657
-0.48992
-0.488823
-0.487388
-0.485599
-0.483461
-0.481066
-0.478472
-0.475731
-0.473012
-0.470415
0.230547
0.207246
0.181079
0.148126
0.108951
0.0636794
0.014079
-0.0368084
-0.088942
-0.138226
-0.184787
-0.228495
-0.266885
-0.300125
-0.329925
-0.355412
-0.376232
-0.393764
-0.408826
-0.421353
-0.431353
-0.439467
-0.446272
-0.451902
-0.456314
-0.459559
-0.462045
-0.463888
-0.465115
-0.465751
-0.465795
-0.465404
-0.464627
-0.463469
-0.461971
-0.460178
-0.458165
-0.455939
-0.4535
-0.450849
0.20138
0.18343
0.16399
0.139852
0.111065
0.0771727
0.038484
-0.00261229
-0.0466191
-0.090031
-0.132542
-0.173902
-0.211634
-0.245394
-0.276557
-0.304047
-0.327191
-0.347199
-0.364765
-0.379694
-0.391906
-0.40206
-0.410758
-0.418101
-0.424017
-0.428587
-0.432291
-0.435244
-0.437466
-0.438971
-0.439791
-0.440122
-0.440011
-0.439465
-0.438521
-0.43724
-0.435709
-0.433916
-0.431829
-0.429498
0.176459
0.161934
0.1467
0.128096
0.106074
0.0800501
0.049611
0.0166598
-0.0198211
-0.0570268
-0.0945053
-0.132137
-0.167666
-0.200336
-0.231277
-0.259375
-0.283668
-0.305144
-0.324382
-0.34109
-0.355059
-0.366887
-0.377186
-0.386033
-0.393339
-0.39914
-0.403982
-0.407983
-0.411163
-0.413539
-0.415127
-0.416167
-0.416712
-0.416772
-0.41639
-0.415613
-0.414538
-0.413153
-0.41141
-0.409365
0.156248
0.14397
0.131413
0.116367
0.0988036
0.0781677
0.0537552
0.0270963
-0.00308134
-0.0346236
-0.0670913
-0.100529
-0.133034
-0.163645
-0.193283
-0.220898
-0.245355
-0.267424
-0.287558
-0.305387
-0.320587
-0.333674
-0.34524
-0.355317
-0.363797
-0.370671
-0.376524
-0.381469
-0.385522
-0.388694
-0.390997
-0.392702
-0.393861
-0.394489
-0.394626
-0.394315
-0.393664
-0.392662
-0.391259
-0.38954
0.139307
0.128647
0.117939
0.105313
0.0907915
0.0738993
0.0538565
0.0319364
0.00679068
-0.0199416
-0.047888
-0.0772375
-0.106463
-0.134539
-0.16224
-0.188642
-0.212528
-0.234476
-0.254832
-0.273183
-0.289116
-0.303044
-0.315516
-0.32652
-0.335935
-0.343696
-0.350405
-0.356163
-0.36098
-0.364867
-0.367817
-0.370129
-0.371853
-0.373005
-0.373624
-0.373747
-0.37349
-0.372848
-0.371772
-0.370367
0.124992
0.115539
0.106167
0.0952659
0.0828998
0.0686756
0.0518347
0.0334671
0.0122518
-0.0105457
-0.0346239
-0.0602765
-0.0863152
-0.11174
-0.137218
-0.161977
-0.184798
-0.20611
-0.226166
-0.244545
-0.260768
-0.275148
-0.288181
-0.299811
-0.30991
-0.318355
-0.325746
-0.33217
-0.337625
-0.342121
-0.345635
-0.34848
-0.350707
-0.352327
-0.35338
-0.353896
-0.353999
-0.353687
-0.352915
-0.351809
0.11275
0.104236
0.0958721
0.0862549
0.0754754
0.0632103
0.0487601
0.0330788
0.0149248
-0.00470354
-0.025567
-0.0480157
-0.0711381
-0.094009
-0.117218
-0.140141
-0.161617
-0.181957
-0.201347
-0.219374
-0.235528
-0.250029
-0.263317
-0.275298
-0.285841
-0.29477
-0.302668
-0.309605
-0.315567
-0.320562
-0.324549
-0.327849
-0.330506
-0.332534
-0.333967
-0.334832
-0.335255
-0.335242
-0.334746
-0.333917
0.102184
0.0944229
0.0868487
0.0782214
0.0686512
0.0578699
0.0452454
0.0316256
0.0158692
-0.0012148
-0.0194363
-0.0391682
-0.059715
-0.0802442
-0.101283
-0.122341
-0.142345
-0.161523
-0.18001
-0.197418
-0.213231
-0.227589
-0.240878
-0.252974
-0.263747
-0.272975
-0.281213
-0.288515
-0.294855
-0.300238
-0.304605
-0.308277
-0.311293
-0.313662
-0.315419
-0.316586
-0.317289
-0.317537
-0.317287
-0.316707
0.0929903
0.0858498
0.0789121
0.0710728
0.0624526
0.052827
0.0416299
0.0296206
0.0157633
0.000730295
-0.0153238
-0.0327749
-0.0510918
-0.0695335
-0.0885726
-0.107835
-0.126346
-0.144278
-0.161733
-0.178354
-0.193632
-0.207648
-0.220739
-0.232759
-0.243579
-0.252945
-0.261375
-0.268904
-0.275502
-0.281166
-0.285823
-0.289784
-0.293086
-0.295732
-0.297758
-0.299177
-0.300118
-0.30059
-0.300553
-0.300193
0.0849336
0.0783158
0.071905
0.0647098
0.0568563
0.048154
0.0380982
0.0273729
0.0150419
0.00167659
-0.0125943
-0.0281351
-0.0445361
-0.0611427
-0.0783826
-0.0959737
-0.113043
-0.129723
-0.146091
-0.161828
-0.176448
-0.189984
-0.202727
-0.21452
-0.225241
-0.234608
-0.243101
-0.250741
-0.257486
-0.263334
-0.268193
-0.272368
-0.275885
-0.278748
-0.280987
-0.282613
-0.283749
-0.284408
-0.284551
-0.284379
0.0778297
0.0716606
0.0656952
0.0590388
0.0518186
0.0438716
0.0347474
0.0250653
0.0139805
0.00198665
-0.010807
-0.0247441
-0.0395044
-0.0545116
-0.0701536
-0.0862205
-0.101936
-0.117404
-0.132684
-0.147497
-0.161387
-0.174352
-0.186645
-0.1981
-0.208604
-0.217862
-0.226313
-0.233963
-0.240762
-0.246706
-0.251691
-0.256007
-0.259676
-0.262697
-0.265099
-0.266885
-0.268177
-0.268986
-0.269277
-0.269263
0.0715316
0.0657539
0.0601722
0.0539753
0.0472886
0.0399717
0.0316225
0.022803
0.0127511
0.00189903
-0.00965949
-0.0222436
-0.0355978
-0.0492155
-0.0634486
-0.0781407
-0.0926039
-0.106925
-0.121153
-0.135041
-0.148169
-0.160511
-0.172286
-0.183326
-0.19353
-0.202592
-0.210915
-0.218492
-0.225265
-0.231231
-0.236274
-0.240669
-0.244431
-0.247558
-0.250074
-0.251979
-0.253388
-0.254313
-0.254722
-0.254837
0.0659205
0.0604884
0.0552426
0.0494442
0.0432153
0.0364337
0.0287399
0.0206453
0.0114616
0.00157174
-0.00894299
-0.0203763
-0.0325218
-0.0449318
-0.0579246
-0.0713855
-0.0847056
-0.0979595
-0.111187
-0.124175
-0.136537
-0.148233
-0.159452
-0.170029
-0.179873
-0.188676
-0.196803
-0.204239
-0.210922
-0.216846
-0.22189
-0.226308
-0.230114
-0.233299
-0.235886
-0.237871
-0.239363
-0.240373
-0.240871
-0.241088
0.0608994
0.0557759
0.0508281
0.0453805
0.0395503
0.0332307
0.0260998
0.0186235
0.0101796
0.00111009
-0.00851342
-0.01896
-0.0300604
-0.0414176
-0.0533187
-0.0656805
-0.0779637
-0.0902336
-0.102526
-0.114654
-0.126267
-0.137314
-0.14796
-0.158046
-0.167489
-0.175987
-0.183869
-0.191112
-0.197653
-0.203483
-0.208478
-0.212874
-0.216678
-0.219881
-0.222502
-0.224533
-0.226076
-0.227143
-0.227704
-0.227998
0.0563887
0.0515436
0.046863
0.0417278
0.0362495
0.0303341
0.023693
0.0167513
0.0089456
0.00058349
-0.0082716
-0.017865
-0.0280559
-0.0384907
-0.0494289
-0.0608104
-0.0721566
-0.0835256
-0.0949495
-0.106267
-0.117158
-0.127568
-0.13764
-0.147223
-0.156242
-0.164404
-0.172003
-0.179016
-0.185375
-0.191071
-0.195977
-0.200312
-0.204078
-0.207263
-0.209885
-0.211931
-0.213499
-0.214598
-0.2152
-0.215548
0.0523226
0.0477305
0.0432917
0.0384376
0.0332734
0.0277162
0.0215064
0.0150323
0.00778341
3.76668e-05
-0.00814841
-0.016998
-0.026392
-0.0360147
-0.0461005
-0.0566063
-0.0671072
-0.0776547
-0.0882775
-0.0988365
-0.109041
-0.118834
-0.128342
-0.137421
-0.146005
-0.153811
-0.161107
-0.167862
-0.174008
-0.179537
-0.184323
-0.188565
-0.192262
-0.195401
-0.197996
-0.200033
-0.201602
-0.202711
-0.203335
-0.203717
0.0486455
0.0442852
0.0400673
0.0354683
0.0305873
0.0253507
0.0195246
0.0134638
0.00670562
-0.00049798
-0.0080964
-0.0162923
-0.0249837
-0.0338876
-0.0432159
-0.0529376
-0.0626751
-0.0724749
-0.0823614
-0.0922138
-0.101771
-0.110974
-0.119935
-0.128518
-0.136665
-0.144106
-0.151083
-0.157562
-0.163475
-0.168814
-0.173454
-0.177579
-0.181183
-0.184251
-0.186796
-0.188803
-0.190353
-0.191454
-0.192082
-0.192481
0.0453105
0.0411639
0.0371493
0.0327836
0.0281599
0.0232127
0.0177312
0.0120394
0.00571747
-0.00100505
-0.00808294
-0.0157
-0.0237677
-0.0320322
-0.0406845
-0.0497027
-0.0587495
-0.0678674
-0.0770781
-0.0862757
-0.0952245
-0.103867
-0.112304
-0.120404
-0.128119
-0.135194
-0.141845
-0.148037
-0.153704
-0.158836
-0.163312
-0.1673
-0.170791
-0.17377
-0.176247
-0.178206
-0.179719
-0.180797
-0.181414
-0.181817
0.0422776
0.0383292
0.0345027
0.0303519
0.0259637
0.0212799
0.0161103
0.0107505
0.00481984
-0.00147251
-0.00808566
-0.0151862
-0.0226968
-0.0303889
-0.0384353
-0.04682
-0.0552409
-0.0637364
-0.0723264
-0.0809183
-0.0892988
-0.0974124
-0.105348
-0.112985
-0.120279
-0.126991
-0.133314
-0.139214
-0.144626
-0.149541
-0.15384
-0.157676
-0.16104
-0.163915
-0.166309
-0.168205
-0.16967
-0.17071
-0.171306
-0.171699
0.0395128
0.035749
0.0320976
0.0281459
0.0239747
0.0195322
0.0146467
0.00958845
0.00401125
-0.00189364
-0.00808895
-0.0147258
-0.0217357
-0.0289126
-0.0364131
-0.0442253
-0.0520776
-0.060005
-0.0680251
-0.0760567
-0.0839074
-0.0915239
-0.098985
-0.106178
-0.113065
-0.119421
-0.12542
-0.131027
-0.136181
-0.140872
-0.144985
-0.14866
-0.151886
-0.154645
-0.156945
-0.158766
-0.160171
-0.161166
-0.16173
-0.162104
0.0369868
0.0333958
0.0299079
0.0261416
0.0221717
0.0179517
0.0133267
0.0085437
0.00328816
-0.00226536
-0.00808277
-0.0143008
-0.0208585
-0.0275698
-0.0345762
-0.0418691
-0.0492035
-0.0566111
-0.0641075
-0.0716213
-0.0789785
-0.0861285
-0.0931411
-0.0999121
-0.106407
-0.112417
-0.118099
-0.123417
-0.128312
-0.132776
-0.136698
-0.140206
-0.143286
-0.145922
-0.148119
-0.149857
-0.151195
-0.152135
-0.152661
-0.153007
0.0346743
0.0312454
0.0279113
0.0243183
0.0205357
0.0165221
0.0121371
0.00760688
0.00264542
-0.00258763
-0.00806126
-0.0138991
-0.0200462
-0.0263344
-0.0328918
-0.0397116
-0.0465728
-0.0535039
-0.0605186
-0.0675534
-0.0744514
-0.0811643
-0.0877543
-0.0941248
-0.100246
-0.105922
-0.111295
-0.116329
-0.120969
-0.125206
-0.128935
-0.132272
-0.135202
-0.137709
-0.139797
-0.141447
-0.14271
-0.143591
-0.144072
-0.144384
0.0325532
0.029277
0.0260877
0.0226574
0.0190499
0.0152283
0.0110658
0.0067689
0.00207775
-0.00286163
-0.00802089
-0.0135118
-0.0192844
-0.0251864
-0.0313337
-0.0377211
-0.0441488
-0.0506422
-0.0572129
-0.0638045
-0.0702748
-0.0765787
-0.0827713
-0.0887631
-0.0945274
-0.0998834
-0.104957
-0.109715
-0.114105
-0.118118
-0.121654
-0.124819
-0.127597
-0.129972
-0.131947
-0.133504
-0.13469
-0.135507
-0.135939
-0.136214
0.0306043
0.0274723
0.0244199
0.0211427
0.0176996
0.0140574
0.0101018
0.00602132
0.00157969
-0.00308924
-0.00795956
-0.0131323
-0.018562
-0.0241102
-0.0298816
-0.0358724
-0.0419017
-0.0479919
-0.0541528
-0.0603337
-0.066406
-0.0723273
-0.0781464
-0.0837808
-0.0892064
-0.0942559
-0.0990423
-0.103533
-0.107679
-0.111472
-0.114818
-0.117811
-0.120437
-0.122679
-0.12454
-0.126002
-0.127107
-0.127857
-0.128238
-0.128472
0.0288106
0.0258152
0.0228925
0.0197598
0.0164714
0.0129976
0.00923518
0.00535622
0.00114594
-0.00327283
-0.00787646
-0.0127561
-0.0178704
-0.0230934
-0.0285195
-0.0341454
-0.0398071
-0.0455249
-0.0513068
-0.0571069
-0.0628085
-0.0683719
-0.0738406
-0.079138
-0.0842426
-0.0889998
-0.093511
-0.0977452
-0.101655
-0.105234
-0.108393
-0.111217
-0.113691
-0.115801
-0.117547
-0.118913
-0.119936
-0.120619
-0.120947
-0.121137
0.0271571
0.0242914
0.0214918
0.0184959
0.0153535
0.0120383
0.00845684
0.00476621
0.000771303
-0.00341515
-0.0077718
-0.0123807
-0.0172036
-0.0221264
-0.0272341
-0.0325234
-0.0378453
-0.0432182
-0.0486488
-0.0540954
-0.0594516
-0.0646803
-0.06982
-0.0748003
-0.0796012
-0.0840804
-0.0883287
-0.0923167
-0.0959996
-0.0993704
-0.102347
-0.105005
-0.107331
-0.10931
-0.110942
-0.112212
-0.113153
-0.113768
-0.114044
-0.114189
0.0256307
0.0228881
0.0202057
0.0173397
0.0143355
0.01117
0.0077585
0.00424439
0.000450649
-0.0035194
-0.00764639
-0.0120041
-0.0165573
-0.0212019
-0.0260148
-0.0309927
-0.036
-0.0410532
-0.0461577
-0.0512754
-0.0563093
-0.0612248
-0.0660562
-0.0707377
-0.0752519
-0.079467
-0.083465
-0.0872173
-0.0906822
-0.0938528
-0.0966525
-0.0991497
-0.101331
-0.103181
-0.104701
-0.105876
-0.106737
-0.107284
-0.107507
-0.107607
0.0242195
0.0215943
0.0190235
0.0162809
0.013408
0.0103841
0.00713267
0.0037846
0.00017927
-0.0035887
-0.00750139
-0.0116254
-0.015928
-0.0203143
-0.0248536
-0.0295425
-0.0342578
-0.039014
-0.0438152
-0.0486265
-0.0533595
-0.057982
-0.0625238
-0.0669246
-0.071168
-0.0751329
-0.0788926
-0.0824204
-0.0856765
-0.0886548
-0.0912838
-0.0936251
-0.0956654
-0.0973905
-0.0988018
-0.099884
-0.100665
-0.101146
-0.101317
-0.101373
0.0229134
0.0203999
0.0179358
0.0153107
0.0125627
0.00967291
0.00657251
0.00338096
-4.74468e-05
-0.00362606
-0.00733835
-0.0112442
-0.0153132
-0.0194591
-0.0237439
-0.0281641
-0.0326076
-0.0370873
-0.041606
-0.0461316
-0.0505835
-0.0549313
-0.0592016
-0.0633383
-0.0673263
-0.0710543
-0.0745881
-0.0779018
-0.0809589
-0.0837529
-0.0862177
-0.0884087
-0.0903131
-0.0919175
-0.0932228
-0.0942146
-0.0949185
-0.0953355
-0.0954556
-0.0954674
0.0217028
0.0192962
0.0169341
0.0144211
0.0117918
0.00902941
0.00607192
0.00302828
-0.000233692
-0.00363441
-0.00715877
-0.0108606
-0.0147114
-0.0186326
-0.0226801
-0.02685
-0.0310403
-0.0352621
-0.0395173
-0.0437762
-0.047965
-0.0520556
-0.056071
-0.0599593
-0.0637066
-0.0672106
-0.0705299
-0.0736406
-0.0765077
-0.0791258
-0.0814332
-0.0834799
-0.0852538
-0.0867417
-0.0879447
-0.0888492
-0.0894784
-0.0898332
-0.0899045
-0.0898737
0.0205795
0.018275
0.0160106
0.0136046
0.0110885
0.00844737
0.00562542
0.00272179
-0.000383163
-0.00361648
-0.00696428
-0.0104747
-0.0141213
-0.0178323
-0.0216578
-0.025594
-0.029548
-0.033529
-0.037538
-0.0415476
-0.0454904
-0.0493395
-0.0531155
-0.0567702
-0.0602908
-0.0635829
-0.0666994
-0.069617
-0.0723039
-0.0747542
-0.0769112
-0.0788199
-0.0804685
-0.0818447
-0.0829494
-0.0837699
-0.0843273
-0.0846225
-0.0846471
-0.0845751
0.0195362
0.0173294
0.0151586
0.0128548
0.0104467
0.0079212
0.00522791
0.00245708
-0.000499538
-0.00357501
-0.00675643
-0.010087
-0.013542
-0.0170557
-0.0206736
-0.0243916
-0.0281244
-0.0318802
-0.035659
-0.0394353
-0.0431471
-0.0467698
-0.0503208
-0.0537559
-0.0570628
-0.0601549
-0.0630792
-0.0658143
-0.0683298
-0.0706206
-0.0726343
-0.0744111
-0.07594
-0.0772095
-0.07822
-0.0789602
-0.0794489
-0.0796872
-0.0796672
-0.0795558
0.018566
0.0164528
0.0143717
0.0121658
0.00986099
0.00744577
0.00487473
0.00223005
-0.000586146
-0.0035124
-0.00653678
-0.00969796
-0.0129728
-0.0163015
-0.0197249
-0.0232384
-0.0267641
-0.0303089
-0.0338719
-0.0374294
-0.0409249
-0.0443347
-0.0476744
-0.0509028
-0.0540084
-0.0569116
-0.0596545
-0.0622164
-0.0645698
-0.0667093
-0.0685865
-0.0702377
-0.0716527
-0.0728202
-0.0737411
-0.0744046
-0.0748279
-0.075012
-0.0749499
-0.074801
0.017663
0.0156395
0.0136446
0.0115323
0.00932637
0.00701643
0.00456177
0.00203713
-0.000645892
-0.0034309
-0.00630692
-0.00930831
-0.0124137
-0.0155685
-0.0188092
-0.022131
-0.0254624
-0.0288091
-0.0321698
-0.0355222
-0.0388142
-0.0420242
-0.0451652
-0.0481992
-0.0511151
-0.05384
-0.0564112
-0.0588098
-0.0610095
-0.0630054
-0.0647532
-0.0662852
-0.0675916
-0.0686624
-0.0694979
-0.0700886
-0.0704498
-0.0705828
-0.0704811
-0.0702966
0.0168218
0.0148844
0.0129722
0.0109496
0.00883827
0.00662903
0.0042853
0.00187505
-0.000681504
-0.00333272
-0.00606822
-0.00891892
-0.0118647
-0.0148558
-0.0179249
-0.0210664
-0.0242152
-0.0273759
-0.0305465
-0.0337062
-0.0368073
-0.0398293
-0.0427834
-0.0456343
-0.0483716
-0.0509281
-0.0533375
-0.0555813
-0.0576359
-0.0594961
-0.0611209
-0.0625398
-0.0637435
-0.0647224
-0.0654772
-0.0659987
-0.0663014
-0.0663861
-0.0662473
-0.0660293
0.0160375
0.0141826
0.0123499
0.0104134
0.00839267
0.00627978
0.00404189
0.00174077
-0.000695626
-0.00321986
-0.00582243
-0.0085307
-0.011326
-0.0141629
-0.01707
-0.020042
-0.023019
-0.0260047
-0.0289967
-0.0319754
-0.0348968
-0.0377421
-0.0405202
-0.0431988
-0.0457677
-0.0481655
-0.0504218
-0.05252
-0.0544371
-0.0561689
-0.0576776
-0.0589893
-0.0600956
-0.0609878
-0.061666
-0.0621224
-0.0623699
-0.0624095
-0.0622361
-0.0619868
0.0153055
0.01353
0.0117738
0.00991978
0.00798591
0.00596522
0.00382834
0.00163133
-0.000690723
-0.00309446
-0.00557097
-0.00814471
-0.0107979
-0.0134889
-0.0162434
-0.0190556
-0.0218708
-0.0246919
-0.0275158
-0.0303241
-0.0330767
-0.0357553
-0.0383679
-0.0408842
-0.0432945
-0.0455425
-0.0476546
-0.0496148
-0.0514024
-0.053013
-0.0544117
-0.0556222
-0.0566367
-0.0574467
-0.0580529
-0.058448
-0.0586436
-0.0586411
-0.0584356
-0.0581571
0.0146218
0.0129226
0.0112399
0.00946519
0.00761462
0.00568221
0.00364174
0.00154408
-0.00066917
-0.00295833
-0.00531532
-0.00776153
-0.0102803
-0.0128335
-0.0154437
-0.0181054
-0.0207681
-0.0234338
-0.0260995
-0.0287476
-0.0313409
-0.0338626
-0.0363193
-0.0386827
-0.0409436
-0.0430504
-0.0450263
-0.0468568
-0.048522
-0.050018
-0.0513131
-0.0524281
-0.0533556
-0.0540885
-0.0546269
-0.0549643
-0.0551116
-0.0550699
-0.0548348
-0.0545293
0.0139826
0.0123567
0.0107449
0.0090463
0.00727566
0.00542784
0.00347945
0.00147667
-0.000632945
-0.00281328
-0.0050566
-0.0073819
-0.00977332
-0.012196
-0.0146701
-0.0171895
-0.0197083
-0.0222277
-0.0247441
-0.0272412
-0.0296847
-0.0320585
-0.0343681
-0.0365876
-0.0387077
-0.0406813
-0.042529
-0.0442367
-0.0457867
-0.0471748
-0.048372
-0.0493969
-0.050243
-0.050903
-0.0513778
-0.0516613
-0.0517635
-0.0516854
-0.0514232
-0.051093
0.0133847
0.0118292
0.0102856
0.00866011
0.0069662
0.00519947
0.00333909
0.00142701
-0.000583991
-0.00266066
-0.00479596
-0.00700645
-0.00927718
-0.0115763
-0.0139215
-0.0163066
-0.0186894
-0.0210706
-0.0234464
-0.0258012
-0.0281032
-0.0303377
-0.0325088
-0.0345925
-0.03658
-0.038428
-0.0401546
-0.041747
-0.0431882
-0.0444747
-0.0455797
-0.04652
-0.0472891
-0.0478811
-0.0482962
-0.0485295
-0.0485896
-0.0484781
-0.0481911
-0.0478382
0.0128248
0.0113371
0.0098591
0.00830388
0.00668365
0.00499467
0.00321852
0.00139305
-0.000523831
-0.00250188
-0.00453435
-0.00663576
-0.00879205
-0.010974
-0.0131971
-0.0154552
-0.0177096
-0.0199603
-0.0222032
-0.0244237
-0.0265926
-0.0286956
-0.0307361
-0.0326919
-0.0345544
-0.0362838
-0.0378965
-0.03938
-0.040719
-0.0419098
-0.0429279
-0.0437885
-0.0444858
-0.0450137
-0.0453732
-0.0455595
-0.0455808
-0.0454386
-0.0451292
-0.0447557
0.0123003
0.0108777
0.00946282
0.00797512
0.00642566
0.00481132
0.00311565
0.00137314
-0.000454062
-0.00233808
-0.00427262
-0.00627035
-0.00831797
-0.0103888
-0.0124963
-0.0146343
-0.0167671
-0.0188944
-0.0210119
-0.0231058
-0.0251488
-0.0271278
-0.0290453
-0.0308804
-0.032625
-0.0342429
-0.035748
-0.0371292
-0.0383718
-0.0394726
-0.0404092
-0.0411951
-0.0418247
-0.042293
-0.0426005
-0.0427432
-0.0427286
-0.0425582
-0.0422288
-0.041837
0.0118084
0.0104484
0.00909438
0.00767159
0.0061901
0.00464733
0.00302877
0.00136556
-0.000375968
-0.00217032
-0.00401156
-0.00591068
-0.00785515
-0.00982041
-0.0118184
-0.0138426
-0.0158604
-0.017871
-0.01987
-0.0218442
-0.0237685
-0.0256305
-0.0274319
-0.0291533
-0.0307869
-0.0322995
-0.0337035
-0.034988
-0.0361403
-0.0371565
-0.0380164
-0.0387321
-0.0392987
-0.039711
-0.0399701
-0.0400725
-0.0400249
-0.039829
-0.0394817
-0.0390735
0.011347
0.0100471
0.00875159
0.00739119
0.00597501
0.00450096
0.00295616
0.00136894
-0.000290776
-0.00199958
-0.00375189
-0.00555719
-0.00740361
-0.00926871
-0.0111626
-0.0130791
-0.0149881
-0.0168882
-0.0187752
-0.0206364
-0.0224485
-0.0242001
-0.0258919
-0.0275061
-0.0290351
-0.0304486
-0.0317572
-0.0329512
-0.0340182
-0.034955
-0.035743
-0.036393
-0.0369002
-0.0372607
-0.0374749
-0.0375399
-0.0374621
-0.037243
-0.03688
-0.0364576
0.0109137
0.0096716
0.00843248
0.00713204
0.00577864
0.00437049
0.00289639
0.00138192
-0.000199613
-0.00182678
-0.00349428
-0.00521025
-0.00696349
-0.00873331
-0.0105286
-0.0123429
-0.0141487
-0.0159444
-0.0177254
-0.0194798
-0.0211861
-0.0228332
-0.0244218
-0.0259349
-0.0273654
-0.0286854
-0.0299044
-0.0310129
-0.032
-0.0328623
-0.0335828
-0.0341711
-0.0346233
-0.0349352
-0.0351077
-0.0351384
-0.035033
-0.0347933
-0.0344164
-0.0339819
0.0105065
0.00932007
0.0081352
0.00689244
0.00559927
0.00425446
0.00284804
0.00140329
-0.000103512
-0.00165272
-0.00323932
-0.00487022
-0.0065348
-0.00821415
-0.00991567
-0.0116332
-0.0133413
-0.0150379
-0.0167188
-0.0183722
-0.0199784
-0.021527
-0.0230181
-0.0244359
-0.0257735
-0.0270055
-0.0281399
-0.0291685
-0.0300803
-0.0308726
-0.03153
-0.0320608
-0.0324613
-0.0327283
-0.0328623
-0.0328614
-0.032731
-0.0324726
-0.0320841
-0.0316391
0.0101238
0.00899073
0.0078581
0.00667072
0.00543551
0.00415142
0.00280988
0.00143195
-3.40726e-06
-0.00147817
-0.00298756
-0.00453741
-0.00611766
-0.00771088
-0.00932346
-0.0109491
-0.0125645
-0.0141675
-0.0157534
-0.0173113
-0.0188231
-0.0202786
-0.0216776
-0.0230055
-0.0242556
-0.0254047
-0.0264598
-0.0274128
-0.0282542
-0.028981
-0.0295791
-0.0300561
-0.0304088
-0.0306338
-0.0307324
-0.0307026
-0.0305494
-0.0302748
-0.0298762
-0.0294228
0.00976371
0.00868199
0.00759961
0.0064655
0.0052859
0.00406016
0.00278079
0.00146688
9.98505e-05
-0.00130379
-0.00273949
-0.00421209
-0.00571206
-0.00722343
-0.00875138
-0.0102899
-0.0118174
-0.0133315
-0.0148276
-0.0162953
-0.0177176
-0.0190853
-0.0203975
-0.0216406
-0.0228083
-0.0238794
-0.0248597
-0.025742
-0.0265171
-0.0271823
-0.0277251
-0.028152
-0.0284599
-0.0286464
-0.0287122
-0.028656
-0.0284825
-0.0281932
-0.0277866
-0.0273265
0.00942475
0.00839236
0.00735833
0.00627539
0.00514925
0.00397951
0.00275972
0.00150718
0.000205488
-0.00113021
-0.00249555
-0.0038945
-0.00531806
-0.00675144
-0.0081991
-0.00965489
-0.011099
-0.012529
-0.0139399
-0.0153222
-0.0166601
-0.0179447
-0.0191749
-0.0203381
-0.0214282
-0.0224258
-0.0233359
-0.0241515
-0.0248646
-0.0254723
-0.0259632
-0.0263432
-0.0266099
-0.0267605
-0.0267963
-0.026716
-0.026524
-0.0262225
-0.0258091
-0.025344
0.00910548
0.00812047
0.00713298
0.0060992
0.0050244
0.00390843
0.00274573
0.00155199
0.000312799
-0.000957967
-0.00225613
-0.00358486
-0.00493562
-0.00629487
-0.00766606
-0.00904335
-0.0104084
-0.0117584
-0.0130889
-0.0143904
-0.0156483
-0.0168546
-0.0180074
-0.0190953
-0.0201122
-0.0210406
-0.0218846
-0.0226379
-0.0232926
-0.0238464
-0.0242889
-0.0246255
-0.0248535
-0.0249712
-0.0249793
-0.0248772
-0.024669
-0.0243564
-0.0239382
-0.0234693
0.00880456
0.00786508
0.0069223
0.00593577
0.00491029
0.00384592
0.00273794
0.00160056
0.000421135
-0.000787566
-0.00202155
-0.00328332
-0.00456477
-0.00585337
-0.00715197
-0.00845467
-0.00974466
-0.011019
-0.012273
-0.0134981
-0.0146806
-0.0158127
-0.0168925
-0.0179094
-0.0188575
-0.0197207
-0.0205026
-0.0211971
-0.0217974
-0.0223007
-0.022698
-0.0229939
-0.0231865
-0.0232735
-0.0232565
-0.0231346
-0.0229117
-0.0225902
-0.0221678
-0.0216969
0.00852078
0.00762498
0.00672522
0.00578407
0.00480592
0.00379111
0.00273557
0.00165219
0.000529932
-0.000619445
-0.00179213
-0.00299003
-0.00420545
-0.00542687
-0.00665632
-0.00788826
-0.00910698
-0.0103094
-0.0114912
-0.012644
-0.013755
-0.0148171
-0.0158281
-0.0167779
-0.0176612
-0.0184631
-0.0191866
-0.0198262
-0.0203751
-0.0208313
-0.0211865
-0.0214447
-0.021604
-0.0216632
-0.021623
-0.0214832
-0.0212476
-0.020918
-0.0204933
-0.0200212
0.00825296
0.00739912
0.00654069
0.00564309
0.00471045
0.00374317
0.00273788
0.00170625
0.000638684
-0.000454
-0.00156814
-0.00270513
-0.00385766
-0.00501502
-0.00617884
-0.00734347
-0.00849452
-0.00962893
-0.0107422
-0.0118265
-0.0128701
-0.0138659
-0.0148118
-0.0156985
-0.0165207
-0.0172649
-0.0179336
-0.0185213
-0.0190225
-0.0194347
-0.0197504
-0.0199736
-0.0201025
-0.0201356
-0.0200744
-0.0199185
-0.0196715
-0.0193356
-0.0189091
-0.0184371
0.00800007
0.00718647
0.00636777
0.00551203
0.00462302
0.00370138
0.00274422
0.00176217
0.000746917
-0.00029159
-0.00134983
-0.00242871
-0.0035213
-0.00461774
-0.00571902
-0.00681976
-0.00790659
-0.00897634
-0.0100248
-0.0110443
-0.012024
-0.0129572
-0.0138418
-0.014669
-0.0154337
-0.0161236
-0.0167406
-0.0172801
-0.0177362
-0.0181072
-0.0183865
-0.0185771
-0.0186775
-0.018687
-0.0186064
-0.0184361
-0.0181792
-0.0178377
-0.0174109
-0.0169396
0.0077611
0.00698613
0.00620559
0.00539001
0.00454293
0.00366502
0.00275398
0.00181943
0.000854204
-0.00013253
-0.00113738
-0.00216084
-0.00319634
-0.0042347
-0.00527658
-0.00631657
-0.00734239
-0.00835093
-0.00933783
-0.010296
-0.0112154
-0.0120895
-0.0129161
-0.0136871
-0.0143977
-0.0150366
-0.0156053
-0.0160991
-0.0165134
-0.016846
-0.017091
-0.0172512
-0.0173257
-0.0173132
-0.0172151
-0.0170318
-0.0167661
-0.0164205
-0.0159936
-0.015524
0.00753518
0.00679721
0.00605332
0.00527631
0.00446941
0.00363348
0.0027666
0.00187755
0.000960165
2.29036e-05
-0.000930963
-0.00190157
-0.00288267
-0.00386579
-0.00485103
-0.00583335
-0.0068013
-0.00775168
-0.0086804
-0.00958061
-0.0104428
-0.011261
-0.012033
-0.0127511
-0.0134107
-0.0140015
-0.0145247
-0.0149761
-0.0153509
-0.0156477
-0.0158609
-0.0159931
-0.0160431
-0.0160107
-0.0158967
-0.0157016
-0.0154285
-0.0150792
-0.0146533
-0.0141858
0.00732139
0.00661893
0.00591021
0.00517016
0.00440186
0.00360616
0.00278158
0.00193609
0.00106445
0.000174467
-0.000730716
-0.00165091
-0.0025802
-0.00351062
-0.00444211
-0.0053696
-0.00628259
-0.00717792
-0.0080514
-0.00889666
-0.00970486
-0.0104703
-0.0111907
-0.0118589
-0.0124705
-0.0130162
-0.0134967
-0.013908
-0.0142462
-0.0145095
-0.014693
-0.014799
-0.014827
-0.014776
-0.0146475
-0.0144419
-0.0141621
-0.0138104
-0.0133855
-0.0129207
0.00711897
0.0064505
0.00577554
0.005071
0.00433965
0.00358253
0.00279845
0.00199467
0.00116676
0.000321943
-0.000536755
-0.00140888
-0.00228877
-0.00316911
-0.00404937
-0.00492483
-0.00578568
-0.00662868
-0.00744994
-0.00824323
-0.00900028
-0.00971592
-0.0103876
-0.0110088
-0.0115753
-0.0120785
-0.0125188
-0.0128929
-0.0131966
-0.0134286
-0.0135845
-0.0136665
-0.0136736
-0.0136059
-0.0134641
-0.0132492
-0.0129638
-0.0126098
-0.0121868
-0.0117248
0.00692713
0.00629125
0.00564869
0.00497814
0.00428228
0.0035621
0.00281677
0.00205291
0.00126682
0.00046514
-0.000349181
-0.00117545
-0.00200832
-0.0028409
-0.00367255
-0.00449855
-0.00530987
-0.00610336
-0.00687501
-0.00761909
-0.00832794
-0.00899645
-0.00962221
-0.0101991
-0.0107231
-0.0111863
-0.0115891
-0.011928
-0.0121996
-0.0124025
-0.0125327
-0.0125923
-0.0125806
-0.0124972
-0.0123435
-0.0121201
-0.0118297
-0.0114745
-0.0110533
-0.0105945
0.00674521
0.00614053
0.00552902
0.0048911
0.00422919
0.00354442
0.00283617
0.00211051
0.00136436
0.00060389
-0.00016807
-0.000950618
-0.00173867
-0.00252588
-0.00331121
-0.00409027
-0.0048546
-0.00560104
-0.00632583
-0.00702337
-0.0076865
-0.00831058
-0.00889302
-0.00942819
-0.00991219
-0.0103379
-0.0107053
-0.0110115
-0.011253
-0.0114287
-0.0115351
-0.0115739
-0.0115445
-0.0114471
-0.0112825
-0.0110516
-0.0107571
-0.0104006
-0.00998204
-0.00952642
0.00657254
0.00599774
0.00541601
0.00480929
0.00417995
0.00352906
0.0028563
0.00216718
0.00145919
0.000738055
6.52273e-06
-0.000734348
-0.00147975
-0.00222368
-0.00296509
-0.00369952
-0.00441924
-0.00512115
-0.00580144
-0.00645493
-0.00707501
-0.00765704
-0.00819864
-0.00869449
-0.00914087
-0.00953125
-0.00986563
-0.010141
-0.0103545
-0.010505
-0.0105892
-0.0106087
-0.0105634
-0.0104527
-0.0102783
-0.0100409
-0.00974264
-0.0093859
-0.00896949
-0.00851742
0.00640852
0.0058623
0.00530908
0.0047323
0.0041341
0.00351566
0.00287682
0.00222264
0.00155111
0.000867524
0.000174555
-0.000526601
-0.00123137
-0.0019342
-0.00263374
-0.00332585
-0.00400325
-0.00466286
-0.00530112
-0.00591299
-0.00649223
-0.00703465
-0.00753774
-0.00799654
-0.00840757
-0.00876483
-0.00906809
-0.00931485
-0.00950211
-0.00962896
-0.00969267
-0.0096945
-0.00963409
-0.00951178
-0.00932841
-0.00908507
-0.00878398
-0.00842681
-0.00801334
-0.00756469
0.00625255
0.00573367
0.00520778
0.00465961
0.00409126
0.00350385
0.00289745
0.00227667
0.00163995
0.000992194
0.000336001
-0.000327318
-0.000993423
-0.00165709
-0.00231693
-0.00296881
-0.00360605
-0.00422565
-0.00482402
-0.0053965
-0.00593729
-0.00644226
-0.00690904
-0.00733299
-0.00771077
-0.00803692
-0.00831118
-0.0085309
-0.00869385
-0.00879882
-0.00884335
-0.00882872
-0.00875488
-0.00862158
-0.00843027
-0.0081818
-0.00787813
-0.00752143
-0.00711052
-0.00666568
0.00610411
0.00561136
0.00511161
0.00459086
0.00405102
0.00349332
0.0029179
0.00232904
0.00172555
0.00111198
0.00049085
-0.000136429
-0.000765734
-0.00139221
-0.00201423
-0.00262798
-0.00322715
-0.00380875
-0.00436947
-0.00490473
-0.00540907
-0.00587878
-0.00631134
-0.00670249
-0.00704905
-0.00734603
-0.00759297
-0.00778774
-0.00792779
-0.00801236
-0.00803929
-0.00800959
-0.00792303
-0.00778009
-0.00758158
-0.0073286
-0.00702315
-0.00666676
-0.00625915
-0.00581808
0.00596266
0.0054949
0.00502017
0.00452561
0.00401308
0.00348375
0.00293795
0.00237957
0.00180778
0.00122681
0.000639104
4.6139e-05
-0.00054817
-0.00113921