/*--------------------------------*- C++ -*----------------------------------*\
| =========                 |                                                 |
| \\      /  F ield         | OpenFOAM: The Open Source CFD Toolbox           |
|  \\    /   O peration     | Version:  3.0.1                                 |
|   \\  /    A nd           | Web:      www.OpenFOAM.org                      |
|    \\/     M anipulation  |                                                 |
\*---------------------------------------------------------------------------*/
FoamFile
{
    version     2.0;
    format      ascii;
    class       surfaceScalarField;
    location    "500";
    object      phi;
}
// * * * * * * * * * * * * * * * * * * * * * * * * * * * * * * * * * * * * * //

dimensions      [0 3 -1 0 0 0 0];

internalField   nonuniform List<scalar> 
115520
(
0.00949174
-0.00230693
-0.0071848
0.0111051
-0.00161333
0.0118809
-0.000775773
0.0121456
-0.000264717
0.0121155
3.01621e-05
0.0119102
0.000205303
0.0116701
0.000240146
0.01142
0.000250133
0.0112266
0.000193434
0.0111098
0.000116784
0.0110471
6.26927e-05
0.0110437
3.45853e-06
0.0111077
-6.40125e-05
0.0112068
-9.90609e-05
0.0113294
-0.00012257
0.0114795
-0.000150123
0.0116524
-0.000172898
0.011834
-0.000181562
0.0120176
-0.0001836
0.0122042
-0.000186621
0.0123976
-0.000193365
0.0125888
-0.000191167
0.0127737
-0.000184956
0.0129494
-0.000175675
0.013123
-0.000173585
0.0132908
-0.000167792
0.0134501
-0.000159222
0.0135989
-0.000148864
0.0137358
-0.000136903
0.0138662
-0.000130343
0.0139873
-0.000121068
0.0140979
-0.000110636
0.0141978
-9.99177e-05
0.0142872
-8.93279e-05
0.014355
-6.77667e-05
0.0143732
-1.82595e-05
0.014367
6.23882e-06
0.0143615
5.44358e-06
0.0143865
-2.49081e-05
-8.16626e-05
0.0144681
0.00576014
-0.00355398
-0.0045131
0.00688589
-0.00273905
0.00790671
-0.00179658
0.00877309
-0.00113108
0.00950716
-0.000703895
0.0101119
-0.000399436
0.0105999
-0.000247863
0.0109685
-0.00011845
0.0112604
-9.83873e-05
0.0114991
-0.000121942
0.0116859
-0.000124044
0.011856
-0.00016664
0.0120398
-0.00024787
0.0122172
-0.000276391
0.0123919
-0.000297304
0.0125855
-0.000343685
0.0127891
-0.000376457
0.0129929
-0.000385406
0.0131957
-0.000386412
0.0134056
-0.000396507
0.0136213
-0.000409081
0.0138328
-0.000402664
0.0140387
-0.0003908
0.0142369
-0.000373881
0.0144385
-0.000375161
0.0146325
-0.000361741
0.0148174
-0.000344122
0.014992
-0.000323506
0.0151552
-0.00030003
0.0153147
-0.000289885
0.0154629
-0.000269296
0.0155991
-0.000246751
0.0157218
-0.000222686
0.0158296
-0.000197079
0.0159235
-0.000161646
0.0160001
-9.4895e-05
0.0160657
-5.93607e-05
0.0161294
-5.82705e-05
0.0161978
-9.32213e-05
-0.000165399
0.0162815
0.00520048
-0.00463947
-0.00411499
0.00624137
-0.00377994
0.00724516
-0.00280036
0.00813638
-0.00202228
0.00892605
-0.00149356
0.00961635
-0.00108973
0.0101911
-0.000822583
0.0107002
-0.000627518
0.0111258
-0.000524002
0.0114893
-0.000485409
0.0118075
-0.000442297
0.0120882
-0.000447289
0.012346
-0.000505649
0.0125879
-0.000518292
0.0128198
-0.000529243
0.0130525
-0.000576368
0.0132851
-0.000609019
0.0135151
-0.000615479
0.0137433
-0.000614552
0.0139731
-0.000626281
0.014203
-0.000638972
0.0144283
-0.000627954
0.0146484
-0.00061096
0.0148625
-0.00058799
0.0150743
-0.000586884
0.0152778
-0.000565276
0.0154724
-0.000538701
0.0156576
-0.000508663
0.0158326
-0.000475084
0.0159999
-0.000457104
0.0161554
-0.000424821
0.0162988
-0.000390113
0.0164295
-0.000353407
0.0165469
-0.000314517
0.0166515
-0.000266201
0.0167414
-0.000184851
0.0168172
-0.000135137
0.0168821
-0.000123086
0.0169369
-0.000148059
-0.000210227
0.0169817
0.00462828
-0.00554756
-0.0037202
0.00553459
-0.00468624
0.006446
-0.00371177
0.00731163
-0.00288791
0.00812753
-0.00230945
0.00887958
-0.00184177
0.00954156
-0.00148456
0.0101484
-0.00123435
0.0106804
-0.00105598
0.0111528
-0.000957866
0.0115792
-0.000868684
0.0119619
-0.000829979
0.0123108
-0.000854476
0.0126337
-0.00084127
0.0129353
-0.000830818
0.0132249
-0.000865927
0.0135051
-0.000889209
0.0137758
-0.000886151
0.0140383
-0.000877054
0.0142971
-0.000885099
0.0145523
-0.00089419
0.0148003
-0.000875924
0.0150407
-0.000851355
0.0152729
-0.000820243
0.0155015
-0.000815442
0.0157209
-0.000784668
0.0159303
-0.000748124
0.0161292
-0.00070753
0.0163169
-0.000662784
0.0164965
-0.000636692
0.0166639
-0.0005922
0.0168186
-0.000544786
0.01696
-0.000494835
0.0170877
-0.000442163
0.0172029
-0.000381401
0.0173047
-0.000286697
0.0173928
-0.000223229
0.0174683
-0.000198564
0.0175317
-0.000211461
-0.000260639
0.0175821
0.00433097
-0.00637852
-0.00350001
0.0051664
-0.00552167
0.00601656
-0.00456194
0.00684713
-0.00371846
0.0076574
-0.00311972
0.00843365
-0.00261801
0.00914193
-0.00219284
0.00981276
-0.00190517
0.0104163
-0.0016595
0.0109627
-0.00150429
0.0114662
-0.0013722
0.0119231
-0.00128683
0.0123378
-0.00126921
0.0127233
-0.00122678
0.013083
-0.00119045
0.0134211
-0.00120403
0.0137429
-0.00121099
0.0140507
-0.00119398
0.0143464
-0.00117275
0.0146331
-0.00117183
0.0149118
-0.00117289
0.015181
-0.00114512
0.0154408
-0.00111114
0.0156911
-0.0010705
0.0159345
-0.00105889
0.0161677
-0.00101779
0.0163899
-0.000970329
0.0166008
-0.000918438
0.0168
-0.000861976
0.0169892
-0.000825914
0.0171656
-0.000768563
0.0173286
-0.000707849
0.0174781
-0.000644246
0.0176135
-0.000577597
0.0177358
-0.000503683
0.0178443
-0.000395215
0.0179383
-0.000317225
0.0180178
-0.000278005
0.0180822
-0.000275942
-0.000309205
0.0181308
0.0041166
-0.00716339
-0.00333174
0.00490815
-0.00631321
0.00571556
-0.00536936
0.00651506
-0.00451796
0.00730847
-0.00391313
0.00808604
-0.00339558
0.00881607
-0.00292288
0.00952374
-0.00261284
0.0101768
-0.00231256
0.0107804
-0.00210789
0.0113465
-0.00193828
0.0118671
-0.00180742
0.0123425
-0.00174464
0.0127869
-0.00167116
0.0132023
-0.00160582
0.0135896
-0.00159133
0.0139552
-0.00157663
0.0143028
-0.0015416
0.0146343
-0.00150421
0.014952
-0.00148951
0.0152576
-0.0014785
0.0155511
-0.00143866
0.015833
-0.00139296
0.0161032
-0.00134072
0.016364
-0.00131964
0.016613
-0.00126683
0.0168499
-0.00120722
0.0170743
-0.00114289
0.017286
-0.00107364
0.0174863
-0.00102624
0.017673
-0.000955246
0.0178457
-0.000880495
0.018004
-0.000802532
0.0181476
-0.000721232
0.0182773
-0.000633424
0.0183927
-0.000510563
0.0184928
-0.000417327
0.0185774
-0.00036256
0.018646
-0.000344543
-0.000361203
0.018698
0.00396956
-0.00792604
-0.00320692
0.0047382
-0.00708185
0.00552066
-0.00615181
0.00629944
-0.00529673
0.00707797
-0.00469167
0.00785017
-0.00416777
0.00858895
-0.00366166
0.00931632
-0.00334021
0.0100012
-0.00299742
0.0106454
-0.00275213
0.011259
-0.0025519
0.0118312
-0.00237959
0.0123585
-0.00227194
0.0128552
-0.00216782
0.0133219
-0.00207254
0.0137563
-0.0020257
0.0141651
-0.00198547
0.0145529
-0.0019294
0.0149213
-0.00187264
0.0152717
-0.00183986
0.0156061
-0.00181294
0.015926
-0.00175852
0.0162318
-0.00169877
0.016524
-0.00163284
0.0168037
-0.00159936
0.0170701
-0.00153325
0.017323
-0.00146011
0.0175622
-0.00138206
0.0177874
-0.00129885
0.0179996
-0.00123847
0.0181972
-0.00115288
0.01838
-0.00106321
0.0185475
-0.00097006
0.0186996
-0.000873316
0.0188368
-0.000770611
0.0189587
-0.000632481
0.0190645
-0.000523144
0.0191538
-0.000451831
0.019226
-0.000416776
-0.000415835
0.0192807
0.00386392
-0.00868028
-0.00310969
0.00462313
-0.00784106
0.00539365
-0.00692233
0.00616178
-0.00606486
0.00693148
-0.00546137
0.00769909
-0.00493539
0.00844233
-0.0044049
0.00918071
-0.00407858
0.00988633
-0.00370305
0.0105594
-0.00342522
0.0112084
-0.00320087
0.0118212
-0.00299242
0.0123918
-0.00284256
0.0129336
-0.00270961
0.0134462
-0.00258505
0.0139243
-0.00250383
0.0143746
-0.00243579
0.0148019
-0.00235667
0.0152074
-0.00227814
0.0155913
-0.0022238
0.015956
-0.00217765
0.0163038
-0.00210632
0.0166353
-0.00203029
0.0169511
-0.00194854
0.0172515
-0.0018998
0.017537
-0.0018187
0.0178074
-0.00173054
0.0180627
-0.00163736
0.0183027
-0.00153888
0.018528
-0.00146379
0.0187377
-0.00136255
0.0189315
-0.00125695
0.019109
-0.00114764
0.0192702
-0.0010345
0.0194154
-0.000915808
0.0195444
-0.000761448
0.0196564
-0.00063511
0.0197508
-0.000546311
0.0198274
-0.000493298
-0.000473927
0.0198855
0.00378777
-0.00943564
-0.00303241
0.00454703
-0.00860033
0.00531528
-0.00769057
0.00608124
-0.00683083
0.0068488
-0.00622893
0.00761575
-0.00570234
0.0083638
-0.00515294
0.00911034
-0.00482512
0.00983119
-0.0044239
0.0105259
-0.0041199
0.0112017
-0.00387672
0.0118467
-0.00363735
0.0124531
-0.00344901
0.0130332
-0.00328975
0.0135857
-0.00313756
0.0141035
-0.00302162
0.0145926
-0.0029248
0.0150574
-0.00282153
0.015499
-0.00271971
0.0159164
-0.00264118
0.0163118
-0.00257311
0.0166884
-0.00248285
0.0170466
-0.00238853
0.0173871
-0.002289
0.0177096
-0.0022223
0.0180154
-0.00212451
0.0183046
-0.00201976
0.0185772
-0.00190998
0.0188332
-0.00179484
0.0190727
-0.00170328
0.0192953
-0.00158521
0.019501
-0.00146257
0.0196893
-0.00133601
0.0198603
-0.00120544
0.0200141
-0.00106958
0.0201506
-0.000897945
0.0202691
-0.000753639
0.0203692
-0.000646378
0.0204503
-0.000574444
-0.000535736
0.0205121
0.00373314
-0.0101988
-0.00296997
0.00449927
-0.00936645
0.00527239
-0.0084637
0.00604292
-0.00760135
0.00681436
-0.00700037
0.00758531
-0.00647329
0.0083406
-0.00590824
0.00909573
-0.00558025
0.00982994
-0.00515811
0.0105426
-0.00483257
0.0112403
-0.0045744
0.0119115
-0.00430857
0.0125481
-0.00408559
0.013161
-0.00390262
0.0137482
-0.00372485
0.0143016
-0.00357497
0.0148261
-0.00344933
0.0153262
-0.00332156
0.015802
-0.0031956
0.016252
-0.00309112
0.016678
-0.00299908
0.0170834
-0.00288825
0.0174687
-0.0027739
0.0178346
-0.00265483
0.01818
-0.00256773
0.0185071
-0.00245162
0.0188161
-0.00232874
0.019107
-0.00220089
0.0193798
-0.00206766
0.0196344
-0.00195786
0.0198709
-0.00182172
0.0200892
-0.00168085
0.0202891
-0.0015359
0.0204704
-0.00138678
0.0206334
-0.0012325
0.0207779
-0.00104248
0.0209034
-0.00087919
0.0210095
-0.000752446
0.0210957
-0.000660592
-0.000601584
0.0211615
0.00369494
-0.0109748
-0.00291892
0.00447307
-0.0101446
0.00525654
-0.00924717
0.00603694
-0.00838176
0.00681734
-0.00778077
0.00759676
-0.00725271
0.00836241
-0.00667389
0.00912806
-0.0063459
0.00987592
-0.00590596
0.0106054
-0.00556205
0.0113224
-0.00529142
0.0120165
-0.00500263
0.0126794
-0.0047485
0.0133209
-0.0045441
0.0139388
-0.00434277
0.0145241
-0.00416032
0.0150812
-0.00400641
0.0156139
-0.00385425
0.0161221
-0.00370382
0.0166033
-0.0035723
0.0170591
-0.00345484
0.017493
-0.00332215
0.0179054
-0.00318635
0.0182968
-0.00304622
0.0186657
-0.0029366
0.0190147
-0.00280062
0.0193441
-0.00265815
0.019654
-0.00251077
0.0199443
-0.00235804
0.0202148
-0.00222827
0.0204658
-0.00207279
0.0206974
-0.00191246
0.0209094
-0.00174791
0.0211017
-0.00157905
0.0212743
-0.00140509
0.0214274
-0.00119553
0.0215603
-0.00101217
0.0216728
-0.000864873
0.0217642
-0.00075205
-0.000671724
0.0218344
0.00366967
-0.0117677
-0.00287686
0.00446384
-0.0109388
0.00526197
-0.0100453
0.00605653
-0.00917632
0.00685013
-0.00857436
0.00764199
-0.00804457
0.00842118
-0.00745309
0.0091999
-0.00712462
0.00996278
-0.00666884
0.0107094
-0.00630862
0.011445
-0.00602706
0.0121602
-0.00571788
0.0128472
-0.0054355
0.0135146
-0.00521151
0.0141602
-0.00498836
0.0147748
-0.00477491
0.015362
-0.00459354
0.0159251
-0.00441734
0.0164637
-0.00424246
0.0169747
-0.00408331
0.0174593
-0.00393946
0.0179211
-0.00378391
0.0183602
-0.0036255
0.0187771
-0.00346304
0.0191695
-0.00332907
0.0195407
-0.00317183
0.019891
-0.00300838
0.0202203
-0.00284008
0.0205287
-0.00266648
0.0208155
-0.00251508
0.0210817
-0.00233896
0.0213272
-0.00215792
0.0215518
-0.00197254
0.0217555
-0.00178273
0.0219382
-0.00158777
0.0221001
-0.00135747
0.0222409
-0.00115292
0.02236
-0.000983963
0.022457
-0.000849075
-0.000746353
0.0225316
0.00365488
-0.0125805
-0.00284204
0.00446841
-0.0117523
0.00528473
-0.0108616
0.00609698
-0.00998857
0.00690734
-0.00938473
0.00771514
-0.00885237
0.00851086
-0.00824881
0.0093053
-0.00791906
0.0100851
-0.00744863
0.0108499
-0.00707339
0.0116045
-0.00678167
0.0123405
-0.0064539
0.0130505
-0.00614555
0.0137424
-0.00590333
0.0144138
-0.00565976
0.0150557
-0.0054168
0.015671
-0.00520884
0.0162627
-0.00500905
0.0168301
-0.00480987
0.0173696
-0.00462285
0.0178821
-0.00445197
0.018371
-0.0042728
0.0188364
-0.00409085
0.0192783
-0.00390498
0.0196944
-0.00374515
0.0200879
-0.00356536
0.0204592
-0.00337963
0.0208082
-0.00318911
0.0211351
-0.00299331
0.0214387
-0.0028187
0.0217204
-0.00262067
0.0219801
-0.00241764
0.0222178
-0.00221018
0.0224332
-0.00199818
0.0226263
-0.00178091
0.0227975
-0.00152863
0.0229463
-0.00130173
0.0230723
-0.00110996
0.0231751
-0.000951865
-0.000825624
0.0232544
0.00364879
-0.0134161
-0.00281315
0.00448451
-0.012588
0.00532198
-0.0116991
0.00615494
-0.0108215
0.00698514
-0.0102149
0.00781193
-0.00967916
0.00862692
-0.00906381
0.00943968
-0.00873182
0.0102385
-0.0082474
0.0110229
-0.00785788
0.0117975
-0.00755627
0.0125547
-0.00721107
0.0132876
-0.00687847
0.0140032
-0.00661894
0.0146994
-0.00635595
0.0153674
-0.00608481
0.0160097
-0.00585106
0.0166287
-0.00562808
0.0172236
-0.00540481
0.0177906
-0.00518985
0.0183302
-0.00499154
0.0188455
-0.00478815
0.0193366
-0.00458188
0.0198033
-0.00437169
0.0202428
-0.00418472
0.0206587
-0.00398122
0.0210511
-0.00377202
0.02142
-0.00355802
0.0217654
-0.00333875
0.0220862
-0.00313945
0.0223837
-0.00291822
0.022658
-0.00269194
0.022909
-0.00246114
0.0231365
-0.0022257
0.0233404
-0.00198479
0.023521
-0.00170928
0.0236781
-0.00145882
0.0238112
-0.00124304
0.0239199
-0.00106057
-0.000909645
0.024004
0.00365008
-0.014277
-0.00278922
0.00451048
-0.0134484
0.00537173
-0.0125603
0.00622801
-0.0116778
0.00708073
-0.0110676
0.00792923
-0.0105277
0.00876601
-0.00990059
0.00959954
-0.00956535
0.0104194
-0.00906727
0.0112253
-0.0086638
0.0120213
-0.00835222
0.0128005
-0.00799028
0.0135567
-0.00763468
0.0142961
-0.00735836
0.0150168
-0.0070766
0.0157103
-0.00677837
0.0163787
-0.00651948
0.0170243
-0.00627361
0.0176459
-0.00602642
0.0182396
-0.00578355
0.0188056
-0.00555752
0.0193468
-0.0053294
0.0198631
-0.00509815
0.0203542
-0.00486283
0.0208171
-0.00464764
0.0212553
-0.00441936
0.0216688
-0.00418555
0.0220577
-0.0039469
0.0224219
-0.00370294
0.02276
-0.00347753
0.0230736
-0.00323185
0.0233627
-0.00298108
0.0236273
-0.00272567
0.0238671
-0.00246552
0.0240819
-0.00219964
0.0242723
-0.00189961
0.0244378
-0.00162438
0.0245782
-0.00138337
0.0246929
-0.0011753
-0.000998481
0.0247817
0.00365777
-0.0151653
-0.00276945
0.00454511
-0.0143357
0.00543247
-0.0134477
0.00631446
-0.0125598
0.00719212
-0.0119453
0.00806477
-0.0114003
0.00892565
-0.0107615
0.00978226
-0.010422
0.0106253
-0.00991029
0.0114544
-0.00949295
0.0122733
-0.00917107
0.0130757
-0.00879274
0.0138561
-0.00841499
0.0146198
-0.00812209
0.0153651
-0.00782189
0.0160841
-0.00749739
0.0167785
-0.00721384
0.0174501
-0.00694525
0.0180979
-0.00667421
0.0187178
-0.00640347
0.0193098
-0.00614952
0.0198766
-0.00589619
0.0204178
-0.00563933
0.0209331
-0.00537815
0.0214193
-0.0051338
0.0218796
-0.00487974
0.0223143
-0.00462025
0.0227233
-0.00435582
0.0231063
-0.00408599
0.0234619
-0.00383314
0.0237918
-0.00356178
0.024096
-0.00328524
0.0243743
-0.00300395
0.0246266
-0.00271783
0.0248526
-0.00242564
0.0250528
-0.00209981
0.025227
-0.00179853
0.0253746
-0.00153104
0.0254954
-0.00129612
-0.00109217
0.0255891
0.0036711
-0.0160832
-0.00275325
0.00458747
-0.0152521
0.00550313
-0.0143634
0.00641299
-0.0134697
0.00731783
-0.0128502
0.00821689
-0.0122994
0.00910403
-0.0116486
0.00998589
-0.0113038
0.0108541
-0.0107785
0.0117083
-0.0103472
0.0125517
-0.0100145
0.0133788
-0.00961982
0.0141842
-0.00922047
0.0149731
-0.00891095
0.0157436
-0.00859239
0.0164884
-0.00824219
0.0172088
-0.00793425
0.0179065
-0.00764297
0.0185804
-0.00734804
0.0192263
-0.00704943
0.0198441
-0.00676732
0.0204362
-0.00648831
0.0210022
-0.00620527
0.0215415
-0.00591751
0.0220509
-0.00564317
0.0225335
-0.00536237
0.0229894
-0.00507616
0.0234185
-0.00478485
0.0238205
-0.004488
0.0241938
-0.00420645
0.0245402
-0.00390816
0.0248596
-0.00360461
0.0251518
-0.00329618
0.0254167
-0.0029828
0.0256541
-0.00266296
0.0258643
-0.00231
0.0260471
-0.00198139
0.0262022
-0.00168612
0.0263292
-0.00142308
-0.00119071
0.0264277
0.00368948
-0.0170326
-0.00274011
0.00463688
-0.0161995
0.00558289
-0.0153094
0.00652268
-0.0144094
0.00745678
-0.0137843
0.00838437
-0.013227
0.00929982
-0.0125641
0.010209
-0.012213
0.0111043
-0.0116738
0.0119853
-0.0112282
0.012855
-0.0108841
0.0137082
-0.010473
0.01454
-0.0100523
0.0153551
-0.00972597
0.0161516
-0.00938893
0.0169228
-0.00901337
0.0176697
-0.00868115
0.0183937
-0.00836703
0.0190938
-0.00804807
0.0197658
-0.00772148
0.0204095
-0.00741097
0.0210269
-0.00710577
0.0216176
-0.00679594
0.022181
-0.00648091
0.0227136
-0.00617579
0.0232186
-0.00586731
0.0236958
-0.00555338
0.0241451
-0.00523412
0.0245662
-0.00490911
0.0249573
-0.00459762
0.0253204
-0.00427118
0.0256551
-0.00393936
0.0259614
-0.0036025
0.0262392
-0.00326056
0.026488
-0.00291174
0.0267083
-0.00253032
0.0269
-0.00217305
0.0270625
-0.00184869
0.0271956
-0.0015562
-0.0012941
0.027299
0.00371245
-0.0180154
-0.00272965
0.00469282
-0.0171799
0.00567115
-0.0162877
0.00664285
-0.0153811
0.0076082
-0.0147496
0.00856634
-0.0141851
0.00951206
-0.0135098
0.0104506
-0.0131515
0.0113748
-0.0125981
0.0122845
-0.0121379
0.0131821
-0.0117817
0.014063
-0.0113539
0.0149226
-0.010912
0.015765
-0.0105683
0.0165886
-0.0102125
0.0173869
-0.00981176
0.018161
-0.00945518
0.0189119
-0.00911797
0.0196385
-0.00877467
0.020337
-0.00841994
0.0210067
-0.0080807
0.0216497
-0.00774875
0.0222652
-0.0074115
0.0228528
-0.00706847
0.0234088
-0.00673183
0.0239363
-0.00639473
0.0244349
-0.00605207
0.0249046
-0.00570377
0.025345
-0.00534949
0.0257542
-0.00500686
0.026134
-0.00465102
0.0264843
-0.00428966
0.0268049
-0.00392309
0.0270956
-0.00355127
0.027356
-0.00317211
0.0275866
-0.00276086
0.0277871
-0.00237359
0.0279572
-0.00201879
0.0280965
-0.00169549
-0.00140232
0.0282047
0.00373965
-0.0190335
-0.00272154
0.00475489
-0.0181951
0.00576746
-0.0173003
0.00677299
-0.0163867
0.00777155
-0.0157482
0.0087622
-0.0151757
0.00974009
-0.0144877
0.0107098
-0.0141212
0.011665
-0.0135532
0.0126051
-0.013078
0.0135324
-0.012709
0.0144425
-0.012264
0.0153313
-0.0118007
0.0162023
-0.0114394
0.0170541
-0.0110643
0.0178807
-0.0106383
0.0186827
-0.0102572
0.0194612
-0.00989648
0.020215
-0.00952844
0.0209403
-0.00914527
0.0216365
-0.00877692
0.0223054
-0.0084176
0.0229461
-0.00805224
0.0235581
-0.00768046
0.0241378
-0.00731153
0.0246879
-0.00694488
0.0252083
-0.00657245
0.0256986
-0.00619404
0.0261584
-0.00580933
0.0265859
-0.00543437
0.0269828
-0.00504789
0.0273489
-0.00465572
0.0276839
-0.00425812
0.0279877
-0.00385509
0.0282598
-0.00344421
0.0285007
-0.00300175
0.0287102
-0.00258309
0.0288879
-0.00219645
0.0290334
-0.00184097
-0.00151532
0.0291464
0.00377082
-0.0200888
-0.00271551
0.0048228
-0.0192471
0.00587152
-0.018349
0.00691278
-0.0174279
0.00794644
-0.0167818
0.00897152
-0.0162008
0.00998348
-0.0154996
0.0109863
-0.0151241
0.0119742
-0.0145411
0.0129465
-0.0140503
0.0139051
-0.0136676
0.0148462
-0.013205
0.0157656
-0.0127202
0.0166667
-0.0123405
0.017548
-0.0119456
0.0184038
-0.0114942
0.0192348
-0.0110882
0.0200418
-0.0107034
0.0208235
-0.0103101
0.0215763
-0.00989814
0.0222996
-0.0095002
0.0229948
-0.00911282
0.0236612
-0.0087186
0.024298
-0.00831726
0.0249017
-0.00791527
0.0254749
-0.00751808
0.0260173
-0.00711484
0.0265285
-0.00670521
0.0270081
-0.00628891
0.0274541
-0.00588043
0.0278683
-0.00546205
0.0282503
-0.00503775
0.0286
-0.00460778
0.0289171
-0.00417218
0.0292011
-0.00372819
0.0294524
-0.00325311
0.029671
-0.00280164
0.0298562
-0.00238174
0.0300079
-0.00199264
-0.0016331
0.0301257
0.00380572
-0.0211832
-0.00271133
0.00489633
-0.0203377
0.00598309
-0.0194358
0.00706198
-0.0185068
0.00813266
-0.0178525
0.00919406
-0.0172622
0.0102419
-0.0165475
0.0112798
-0.016162
0.0123022
-0.0155634
0.0133085
-0.0150566
0.0143002
-0.0146594
0.0152738
-0.0141786
0.0162255
-0.0136719
0.0171581
-0.013273
0.0180702
-0.0128577
0.0189566
-0.0123806
0.0198176
-0.0119492
0.020654
-0.0115398
0.0214645
-0.0111206
0.0222456
-0.0106793
0.0229967
-0.0102512
0.0237189
-0.00983503
0.0244114
-0.00941114
0.0250735
-0.00897937
0.0257018
-0.00854351
0.0262984
-0.00811475
0.0268632
-0.00767963
0.0273957
-0.00723763
0.0278953
-0.00678857
0.0283602
-0.00634536
0.028792
-0.00589378
0.0291902
-0.00543601
0.0295548
-0.00497232
0.0298853
-0.00450275
0.0301814
-0.00402424
0.0304434
-0.00351507
0.030671
-0.00302933
0.030864
-0.00257471
0.0310219
-0.00215053
-0.00175562
0.0311444
0.0038442
-0.0223185
-0.00270883
0.00497534
-0.0214689
0.00610206
-0.0205625
0.00722047
-0.0196252
0.00833006
-0.0189621
0.0094297
-0.0183619
0.0105154
-0.0176332
0.0115902
-0.0172368
0.0126489
-0.0166222
0.0136909
-0.0160986
0.0147175
-0.015686
0.0157253
-0.0151864
0.0167108
-0.0146573
0.0176764
-0.0142386
0.0186208
-0.013802
0.019539
-0.0132988
0.0204313
-0.0128415
0.0212982
-0.0124067
0.0221385
-0.0119609
0.0229489
-0.0114897
0.0237285
-0.0110308
0.0244784
-0.010585
0.0251978
-0.0101305
0.0258859
-0.00966739
0.0265392
-0.00919681
0.0271598
-0.00873543
0.0277475
-0.00826729
0.0283016
-0.00779175
0.0288217
-0.00730869
0.0293059
-0.00682953
0.0297555
-0.0063434
0.0301703
-0.00585081
0.03055
-0.00535199
0.0308942
-0.00484702
0.0312025
-0.00433252
0.0314753
-0.00378779
0.0317122
-0.00326629
0.0319129
-0.00277544
0.0320771
-0.00231466
-0.00188287
0.0322043
0.00388613
-0.0234968
-0.00270785
0.00505973
-0.0226425
0.00622834
-0.0217311
0.00738819
-0.0207851
0.00853862
-0.0201125
0.00967842
-0.0195017
0.0108038
-0.0187586
0.0119173
-0.0183503
0.0130143
-0.0177191
0.0140938
-0.0171781
0.0151571
-0.0167493
0.0162009
-0.0162302
0.0172217
-0.0156782
0.0182219
-0.0152388
0.0192
-0.0147802
0.0201515
-0.0142502
0.0210763
-0.0137663
0.0219749
-0.0133054
0.0228462
-0.0128322
0.0236868
-0.0123304
0.0244959
-0.0118399
0.0252744
-0.0113635
0.0260214
-0.0108775
0.0267361
-0.010382
0.0274151
-0.00987582
0.0280603
-0.00938069
0.0286714
-0.00887836
0.0292477
-0.00836806
0.0297888
-0.00784973
0.0302926
-0.00733335
0.0307605
-0.00681131
0.0311922
-0.00628248
0.0315873
-0.00574709
0.0319455
-0.00520525
0.0322662
-0.00465328
0.0325499
-0.00407145
0.0327962
-0.00351263
0.0330048
-0.002984
0.0331752
-0.00248506
-0.00201484
0.0333072
0.00393142
-0.02472
-0.00270825
0.00514945
-0.0238605
0.00636192
-0.0229436
0.00756518
-0.0219883
0.00875838
-0.0213057
0.00994028
-0.0206836
0.0111072
-0.0199255
0.0122615
-0.0195046
0.0133985
-0.0188561
0.0145174
-0.0182971
0.0156192
-0.0178511
0.0167006
-0.0173116
0.0177586
-0.0167362
0.0187949
-0.0162752
0.0198084
-0.0157936
0.0207945
-0.0152363
0.0217532
-0.014725
0.0226848
-0.014237
0.0235882
-0.0137355
0.0244602
-0.0132023
0.0252997
-0.0126795
0.0261078
-0.0121715
0.0268833
-0.011653
0.0276253
-0.0111241
0.0283308
-0.0105813
0.0290013
-0.0100512
0.0296364
-0.00951346
0.0302355
-0.00896713
0.0307979
-0.00841221
0.0313219
-0.0078573
0.0318085
-0.00729794
0.0322575
-0.00673141
0.0326683
-0.00615795
0.0330408
-0.00557773
0.0333743
-0.00498675
0.0336691
-0.00436625
0.033925
-0.00376852
0.0341415
-0.00320051
0.0343182
-0.00266181
-0.00215154
0.0344549
0.00398
-0.0259901
-0.00270993
0.00524448
-0.025125
0.00650282
-0.0242019
0.00775148
-0.023237
0.00898946
-0.0225437
0.0102154
-0.0219096
0.0114259
-0.021136
0.0126228
-0.0207015
0.0138018
-0.0200351
0.0149619
-0.0194572
0.016104
-0.0189932
0.0172249
-0.0184325
0.0183217
-0.0178329
0.0193959
-0.0173494
0.0204462
-0.0168439
0.0214685
-0.0162586
0.0224626
-0.0157191
0.0234286
-0.0152031
0.0243653
-0.0146723
0.0252698
-0.0141068
0.026141
-0.0135507
0.0269796
-0.0130101
0.0277845
-0.0124579
0.0285549
-0.0118945
0.0292876
-0.011314
0.0299841
-0.0107478
0.0306439
-0.0101733
0.0312664
-0.00958959
0.0318509
-0.00899671
0.0323955
-0.00840191
0.0329013
-0.00780375
0.0333679
-0.00719802
0.0337949
-0.00658496
0.034182
-0.00596479
0.0345284
-0.00533321
0.0348346
-0.00467241
0.0351002
-0.00403413
0.0353248
-0.00342508
0.0355079
-0.00284496
-0.00229298
0.0356494
0.00403186
-0.0273091
-0.0027128
0.00534484
-0.026438
0.00665112
-0.0255082
0.00794723
-0.0245331
0.00923201
-0.0238285
0.0105041
-0.0231816
0.0117601
-0.022392
0.0130016
-0.0219429
0.0142245
-0.021258
0.0154278
-0.0206605
0.016612
-0.0201774
0.0177743
-0.0195948
0.0189116
-0.0189703
0.0200254
-0.0184632
0.0211143
-0.0179328
0.0221743
-0.0173186
0.0232052
-0.01675
0.024207
-0.0162049
0.0251785
-0.0156437
0.0261167
-0.0150451
0.0270207
-0.0144547
0.0278909
-0.0138803
0.0287263
-0.0132934
0.029526
-0.0126941
0.0302868
-0.0120748
0.0310102
-0.0114711
0.0316955
-0.0108586
0.032342
-0.0102361
0.0329492
-0.00960386
0.033515
-0.00896776
0.0340406
-0.00832928
0.0345253
-0.00768279
0.0349689
-0.00702853
0.0353709
-0.00636677
0.0357306
-0.00569297
0.0360484
-0.0049902
0.036324
-0.00430966
0.0365568
-0.00365787
0.0367464
-0.0030346
-0.00243921
0.0368926
0.00408696
-0.0286793
-0.00271678
0.00545058
-0.0278016
0.00680692
-0.0268645
0.00815257
-0.0258788
0.00948626
-0.0251622
0.0108065
-0.0245019
0.0121101
-0.0236956
0.0133982
-0.0232311
0.0146671
-0.0225268
0.0159155
-0.0219089
0.0171438
-0.0214057
0.0183492
-0.0208002
0.019529
-0.02015
0.0206841
-0.0196183
0.0218132
-0.0190619
0.0229126
-0.018418
0.0239819
-0.0178192
0.025021
-0.017244
0.0260286
-0.0166513
0.027002
-0.0160185
0.02794
-0.0153927
0.0288431
-0.0147833
0.02971
-0.0141603
0.03054
-0.013524
0.0313299
-0.0128647
0.032081
-0.0122222
0.0327926
-0.0115702
0.033464
-0.0109075
0.0340945
-0.0102344
0.0346822
-0.00955549
0.0352281
-0.0088751
0.0357315
-0.00818622
0.0361921
-0.00748911
0.0366094
-0.0067841
0.0369828
-0.00606638
0.0373125
-0.0053199
0.0375982
-0.00459535
0.0378394
-0.00389903
0.0380356
-0.00323086
-0.00259026
0.0381867
0.00414531
-0.0301028
-0.00272181
0.00556176
-0.029218
0.00697035
-0.0282731
0.00836772
-0.0272761
0.00975246
-0.0265469
0.011123
-0.0258725
0.0124763
-0.0250489
0.0138132
-0.0245679
0.0151299
-0.0238435
0.0164255
-0.0232045
0.0176999
-0.0226801
0.0189504
-0.0220508
0.0201744
-0.021374
0.0213727
-0.0208166
0.0225439
-0.0202331
0.0236844
-0.0195584
0.0247936
-0.0189285
0.0258716
-0.0183219
0.0269168
-0.0176966
0.0279268
-0.0170284
0.0289002
-0.0163661
0.0298373
-0.0157204
0.030737
-0.0150601
0.0315983
-0.0143854
0.0324184
-0.0136848
0.0331982
-0.013002
0.033937
-0.012309
0.034634
-0.0116046
0.0352886
-0.010889
0.0358989
-0.0101658
0.0364657
-0.00944183
0.0369883
-0.00870888
0.0374664
-0.00796721
0.0378995
-0.00721719
0.038287
-0.00645381
0.0386289
-0.00566182
0.038925
-0.00489143
0.0391747
-0.00414877
0.0393777
-0.00343384
-0.00274621
0.0395336
0.00420695
-0.0315819
-0.00272785
0.00567849
-0.0306896
0.00714157
-0.0297362
0.0085929
-0.0287275
0.0100309
-0.0279849
0.011454
-0.0272955
0.0128591
-0.026454
0.0142468
-0.0259557
0.0156137
-0.0252104
0.0169584
-0.0245492
0.0182809
-0.0240027
0.0195786
-0.0233485
0.0208488
-0.0226442
0.0220921
-0.0220599
0.0233072
-0.0214481
0.0244905
-0.0207417
0.0256415
-0.0200795
0.0267599
-0.0194403
0.0278443
-0.0187811
0.0288923
-0.0180763
0.0299024
-0.0173763
0.0308749
-0.0166929
0.0318087
-0.0159938
0.0327026
-0.0152793
0.0335538
-0.0145361
0.0343633
-0.0138115
0.0351303
-0.013076
0.0358539
-0.0123282
0.0365334
-0.0115685
0.037167
-0.0107994
0.0377553
-0.0100302
0.0382978
-0.00925138
0.038794
-0.00846336
0.0392433
-0.00766653
0.0396452
-0.00685566
0.0399996
-0.0060163
0.0403064
-0.00519819
0.0405649
-0.00440729
0.0407748
-0.0036437
-0.00290713
0.0409357
0.0042719
-0.033119
-0.00273485
0.00580088
-0.0322186
0.00732078
-0.0312561
0.00882837
-0.030235
0.0103219
-0.0294785
0.0117998
-0.0287734
0.013259
-0.0279132
0.0146998
-0.0273965
0.0161189
-0.0266295
0.0175149
-0.0259452
0.0188877
-0.0253754
0.0202345
-0.0246954
0.0215529
-0.0239626
0.0228432
-0.0233502
0.024104
-0.022709
0.025332
-0.0219697
0.0265265
-0.021274
0.0276871
-0.0206008
0.0288123
-0.0199063
0.0298998
-0.0191638
0.0309482
-0.0184247
0.0319575
-0.0177022
0.0329266
-0.0169628
0.0338543
-0.016207
0.0347379
-0.0154197
0.0355782
-0.0146518
0.0363743
-0.0138721
0.0371254
-0.0130793
0.0378307
-0.0122738
0.0384884
-0.0114571
0.039099
-0.0106408
0.039662
-0.00981437
0.0401768
-0.00897815
0.0406429
-0.00813262
0.0410596
-0.00727238
0.041427
-0.00638372
0.0417447
-0.00551593
0.0420123
-0.00467482
0.0422292
-0.00386061
-0.00307312
0.0423952
0.00434023
-0.0347164
-0.00274278
0.00592907
-0.0338074
0.0075082
-0.0328352
0.00907443
-0.0318013
0.0106259
-0.0310299
0.0121609
-0.0303084
0.0136764
-0.0294287
0.0151726
-0.0288927
0.0166462
-0.0281031
0.0180958
-0.0273948
0.0195209
-0.0268005
0.0209191
-0.0260936
0.0222877
-0.0253312
0.0236271
-0.0246896
0.0249356
-0.0240175
0.0262102
-0.0232443
0.0274499
-0.0225138
0.0286544
-0.0218053
0.0298222
-0.0210741
0.0309508
-0.0202924
0.032039
-0.0195128
0.0330865
-0.0187498
0.0340923
-0.0179686
0.0350551
-0.0171698
0.0359724
-0.0163369
0.0368446
-0.015524
0.0376709
-0.0146984
0.0384505
-0.0138589
0.0391825
-0.0130057
0.0398651
-0.0121397
0.0404988
-0.0112745
0.041083
-0.0103985
0.041617
-0.00951219
0.0421004
-0.00861602
0.0425325
-0.00770444
0.0429132
-0.00676448
0.0432423
-0.00584498
0.0435191
-0.00495162
0.0437432
-0.00408474
-0.00324428
0.0439144
0.004412
-0.0363768
-0.00275164
0.0060632
-0.0354586
0.00770406
-0.0344761
0.00933141
-0.0334286
0.0109433
-0.0326418
0.0125378
-0.0319029
0.0141121
-0.0310031
0.015666
-0.0304466
0.0171965
-0.0296335
0.0187018
-0.0289002
0.0201816
-0.0282803
0.0216333
-0.0275452
0.0230543
-0.0267522
0.0244447
-0.02608
0.025803
-0.0253758
0.0271261
-0.0245673
0.0284131
-0.0238008
0.0296633
-0.0230556
0.0308754
-0.0222862
0.0320469
-0.0214639
0.0331764
-0.0206423
0.0342637
-0.0198371
0.0353076
-0.0190125
0.0363069
-0.0181691
0.037259
-0.0172891
0.0381644
-0.0164293
0.0390221
-0.0155561
0.0398312
-0.014668
0.0405908
-0.0137654
0.0412993
-0.0128482
0.0419569
-0.0119321
0.042563
-0.0110046
0.043117
-0.0100661
0.0436182
-0.0091173
0.0440662
-0.00815235
0.0444607
-0.007159
0.0448014
-0.0061857
0.0450878
-0.00523797
0.0453193
-0.00431629
-0.00342075
0.0454958
0.00448729
-0.0381027
-0.0027614
0.00620346
-0.0371748