/*--------------------------------*- C++ -*----------------------------------*\
| =========                 |                                                 |
| \\      /  F ield         | OpenFOAM: The Open Source CFD Toolbox           |
|  \\    /   O peration     | Version:  3.0.1                                 |
|   \\  /    A nd           | Web:      www.OpenFOAM.org                      |
|    \\/     M anipulation  |                                                 |
\*---------------------------------------------------------------------------*/
FoamFile
{
    version     2.0;
    format      ascii;
    class       volVectorField;
    location    "500";
    object      U;
}
// * * * * * * * * * * * * * * * * * * * * * * * * * * * * * * * * * * * * * //

dimensions      [0 1 -1 0 0 0 0];

internalField   nonuniform List<vector> 
58000
(
(0.359531 0.751645 -5.79875e-21)
(0.452839 0.919187 1.04315e-20)
(0.567324 1.01258 2.85895e-21)
(0.682115 1.03955 -1.15244e-20)
(0.785178 1.02313 -2.30292e-20)
(0.870904 0.977461 0)
(0.941117 0.920784 -1.94652e-20)
(0.997696 0.859097 -1.5547e-21)
(1.04605 0.797631 2.20592e-20)
(1.08636 0.741072 0)
(1.12009 0.688536 2.51615e-20)
(1.14934 0.640701 2.28219e-20)
(1.17282 0.598863 -7.85702e-20)
(1.19075 0.562131 2.82764e-20)
(1.20517 0.528751 2.42682e-20)
(1.21705 0.498818 5.21901e-20)
(1.22614 0.472261 -7.59822e-20)
(1.23329 0.448122 0)
(1.23912 0.425492 5.06655e-20)
(1.24383 0.40417 -7.62555e-20)
(1.24739 0.384538 1.01477e-22)
(1.24988 0.366258 2.54221e-20)
(1.25188 0.348812 1.20301e-20)
(1.253 0.331679 0)
(1.25378 0.315397 2.29669e-20)
(1.25355 0.300149 -1.15227e-20)
(1.25296 0.285531 0)
(1.25212 0.271345 3.88345e-22)
(1.25064 0.257305 0)
(1.24904 0.243891 -1.09388e-20)
(1.24679 0.231242 5.38099e-20)
(1.2444 0.218996 -5.34123e-20)
(1.24192 0.207001 -3.18753e-20)
(1.23921 0.19509 8.31765e-20)
(1.23627 0.183304 -2.07108e-20)
(1.23118 0.171564 -1.03918e-20)
(1.22288 0.160398 1.52562e-20)
(1.21416 0.150807 -9.81665e-21)
(1.2064 0.142759 1.45698e-20)
(1.20743 0.1373 0)
(0.523907 0.474374 -1.11974e-20)
(0.593561 0.557174 0)
(0.677055 0.626728 -3.8363e-23)
(0.76409 0.680858 3.97197e-23)
(0.849202 0.717571 1.05047e-20)
(0.932996 0.739803 7.30574e-21)
(1.00822 0.745875 -1.96233e-20)
(1.07493 0.738393 6.6207e-21)
(1.1317 0.719881 3.98692e-20)
(1.17658 0.695 -2.21566e-20)
(1.21276 0.665506 0)
(1.2407 0.63283 -4.80142e-20)
(1.26191 0.601387 3.07922e-20)
(1.27848 0.571149 1.83735e-20)
(1.2918 0.540961 -1.8701e-20)
(1.3021 0.512438 0)
(1.31 0.486491 1.8997e-20)
(1.31631 0.461991 0)
(1.32141 0.438231 7.21421e-20)
(1.32538 0.415745 -1.08282e-19)
(1.3284 0.395167 0)
(1.33073 0.37578 9.03712e-20)
(1.33251 0.35692 -7.12026e-20)
(1.33369 0.338409 0)
(1.33433 0.321087 -2.64015e-20)
(1.33455 0.305004 0)
(1.33439 0.289366 0)
(1.33386 0.274013 2.57397e-20)
(1.33289 0.25887 0)
(1.3316 0.244558 -2.52886e-20)
(1.33008 0.231103 3.33238e-20)
(1.3283 0.217912 -3.28976e-20)
(1.32621 0.204849 2.4303e-20)
(1.32372 0.19184 -1.63737e-20)
(1.32083 0.179088 0)
(1.31729 0.16678 -2.41325e-20)
(1.31328 0.155595 1.58583e-20)
(1.30935 0.146065 0)
(1.30653 0.137663 -3.9613e-21)
(1.30485 0.130406 7.74641e-21)
(0.593412 0.426849 5.71278e-21)
(0.619586 0.490457 -2.57682e-21)
(0.657366 0.551122 -7.37522e-21)
(0.706501 0.603993 -3.80622e-22)
(0.764088 0.645111 3.96612e-22)
(0.827301 0.674315 -2.67972e-21)
(0.890022 0.691107 6.36578e-21)
(0.951412 0.696946 0)
(1.00929 0.693552 -1.31462e-20)
(1.06049 0.682178 1.21201e-20)
(1.10664 0.664402 1.78927e-20)
(1.14727 0.642004 -1.18729e-21)
(1.18068 0.61723 0)
(1.20845 0.590955 4.35823e-20)
(1.2322 0.563717 -2.31857e-20)
(1.25151 0.537156 0)
(1.26682 0.511901 0)
(1.27945 0.487451 0)
(1.29009 0.463684 -1.25553e-20)
(1.29879 0.441143 1.3774e-20)
(1.30567 0.420139 0)
(1.31125 0.400114 1.2963e-20)
(1.31591 0.380706 0)
(1.31975 0.361882 0)
(1.32268 0.344216 2.69192e-20)
(1.32481 0.327555 -5.39032e-20)
(1.32638 0.311329 5.37887e-20)
(1.32747 0.295516 1.31328e-20)
(1.3281 0.280089 -2.6688e-20)
(1.32824 0.265477 -1.96542e-20)
(1.32793 0.251578 0)
(1.32726 0.237954 1.27519e-20)
(1.32625 0.224597 0)
(1.32489 0.21151 2.77513e-22)
(1.32317 0.198926 -1.9124e-20)
(1.32104 0.186935 1.286e-20)
(1.31853 0.175481 0)
(1.31584 0.164549 0)
(1.31324 0.153894 -3.12775e-21)
(1.31088 0.143129 -3.31377e-21)
(0.66863 0.38344 5.59495e-21)
(0.685787 0.427966 1.78953e-21)
(0.708301 0.47297 8.39494e-23)
(0.737949 0.515936 4.03347e-23)
(0.774881 0.553744 -3.13274e-21)
(0.818648 0.584917 0)
(0.865905 0.607188 -2.15054e-22)
(0.91513 0.621098 0)
(0.96454 0.62697 -6.23944e-21)
(1.01088 0.625405 -2.84188e-21)
(1.05464 0.617662 -1.03186e-20)
(1.09507 0.604765 9.50944e-21)
(1.1301 0.588287 -1.42245e-20)
(1.16054 0.56916 -3.07284e-20)
(1.18755 0.547853 -1.73031e-20)
(1.21037 0.52578 1.71084e-20)
(1.22915 0.503857 -1.67565e-20)
(1.24508 0.481957 0)
(1.25876 0.460084 -8.08326e-21)
(1.2702 0.438851 -3.93693e-20)
(1.27951 0.418734 3.94236e-20)
(1.28727 0.399362 -1.05236e-20)
(1.29385 0.380418 0)
(1.2994 0.361887 0)
(1.30384 0.344348 3.06614e-20)
(1.30733 0.327752 -4.12503e-20)
(1.31014 0.311569 4.1492e-20)
(1.31233 0.29575 4.10145e-23)
(1.31394 0.280266 -8.28979e-20)
(1.31497 0.265532 5.21647e-20)
(1.3155 0.251506 -2.06077e-20)
(1.3156 0.237778 -1.0565e-20)
(1.3153 0.224325 4.11067e-20)
(1.3146 0.211137 -1.52364e-20)
(1.31351 0.198413 5.25057e-21)
(1.31211 0.18623 -4.97559e-21)
(1.31042 0.17445 -4.96047e-21)
(1.30854 0.163049 0)
(1.30657 0.151988 2.49733e-21)
(1.30462 0.141217 -2.60065e-21)
(0.715331 0.357236 -2.78541e-21)
(0.727017 0.391331 -5.48211e-21)
(0.741926 0.426544 1.5247e-21)
(0.761561 0.461567 3.34317e-21)
(0.786752 0.494458 -1.59138e-22)
(0.817931 0.524149 0)
(0.85346 0.548057 2.28695e-23)
(0.89241 0.566001 1.51135e-22)
(0.933464 0.577598 0)
(0.973852 0.582441 3.3869e-21)
(1.01365 0.58149 4.8374e-21)
(1.0519 0.575412 0)
(1.08637 0.565072 -9.57934e-21)
(1.11746 0.551357 1.0788e-20)
(1.14597 0.534916 0)
(1.17081 0.516876 -2.28634e-20)
(1.19187 0.498075 6.46885e-20)
(1.21017 0.47865 1.11899e-21)
(1.22623 0.45878 -1.28254e-20)
(1.23992 0.4391 0)
(1.25127 0.420093 0)
(1.26088 0.401526 0)
(1.26918 0.38321 1.51165e-20)
(1.27631 0.365193 0)
(1.28213 0.348028 0)
(1.28684 0.331663 0)
(1.29075 0.315645 2.48784e-20)
(1.29396 0.299955 -3.29016e-20)
(1.29652 0.284588 4.10574e-20)
(1.29839 0.269934 -2.50704e-20)
(1.29965 0.255935 0)
(1.30044 0.242219 0)
(1.30078 0.228779 -8.48492e-21)
(1.3007 0.215616 2.50335e-20)
(1.3002 0.202919 -5.86821e-23)
(1.29936 0.19074 -2.05633e-20)
(1.29823 0.178898 1.2481e-20)
(1.29681 0.167334 0)
(1.29516 0.156035 0)
(1.29325 0.145007 -4.16537e-21)
(0.753315 0.336781 0)
(0.762316 0.363587 3.68978e-21)
(0.773125 0.391541 6.19386e-21)
(0.786994 0.419975 -5.37223e-21)
(0.80489 0.447685 9.58046e-22)
(0.827559 0.474075 -2.5744e-21)
(0.85439 0.496923 -1.95207e-22)
(0.88489 0.515883 6.09419e-22)
(0.918348 0.530219 1.01281e-21)
(0.952596 0.539001 -4.43716e-21)
(0.987523 0.542838 -1.52515e-22)
(1.02224 0.541974 -1.38569e-20)
(1.05465 0.536711 2.23065e-20)
(1.08477 0.527818 -1.23201e-20)
(1.11314 0.515909 1.59542e-20)
(1.13856 0.5018 -1.49228e-20)
(1.16068 0.486261 0)
(1.18032 0.469587 0)
(1.19788 0.45203 0)
(1.2131 0.434195 0)
(1.22596 0.416597 -1.23591e-20)
(1.23701 0.399144 -1.1946e-20)
(1.24666 0.381729 3.6121e-20)
(1.25505 0.364437 -2.47346e-20)
(1.26201 0.347802 0)
(1.26775 0.331823 1.24482e-20)
(1.27261 0.316116 -1.94227e-20)
(1.27668 0.300676 2.62879e-20)
(1.28003 0.285507 -4.62783e-20)
(1.2826 0.270982 1.32953e-20)
(1.2845 0.257063 -2.6767e-20)
(1.28588 0.243409 2.68593e-20)
(1.28676 0.230019 -3.67324e-22)
(1.28717 0.216891 6.93291e-21)
(1.28715 0.204198 0)
(1.28674 0.191989 0)
(1.286 0.180086 -6.74185e-21)
(1.28495 0.168428 6.76554e-21)
(1.28359 0.157036 0)
(1.28192 0.145957 -3.26663e-21)
(0.78257 0.320641 1.34164e-21)
(0.790053 0.342454 -1.86896e-21)
(0.798643 0.365241 -8.91516e-22)
(0.809269 0.388638 1.73961e-21)
(0.822775 0.411896 4.08028e-21)
(0.839917 0.434758 2.75424e-21)
(0.860588 0.455487 6.0877e-22)
(0.884628 0.473787 -4.98731e-22)
(0.911768 0.488894 0)
(0.940436 0.499669 0)
(0.970518 0.506469 1.70605e-21)
(1.0013 0.50925 0)
(1.03092 0.507868 0)
(1.05919 0.50291 -9.84934e-21)
(1.08647 0.494916 5.08525e-21)
(1.11153 0.484398 -1.19274e-20)
(1.13385 0.471992 6.71018e-21)
(1.15408 0.458076 0)
(1.17248 0.442939 7.57876e-21)
(1.1887 0.427127 9.31295e-21)
(1.20263 0.411149 -1.84641e-20)
(1.21477 0.395022 2.86572e-20)
(1.2255 0.378718 4.90474e-22)
(1.23493 0.362354 -1.95975e-20)
(1.24286 0.346441 1.07071e-20)
(1.24948 0.331019 -2.04577e-20)
(1.25517 0.315775 -2.09355e-20)
(1.26002 0.30072 -1.0356e-20)
(1.26408 0.285877 1.11441e-20)
(1.26729 0.271601 -2.68365e-20)
(1.26977 0.257867 4.38225e-20)
(1.27168 0.244369 4.2107e-23)
(1.27306 0.231109 -4.43994e-20)
(1.27393 0.218092 5.70869e-21)
(1.27432 0.205481 0)
(1.27429 0.193322 1.66345e-20)
(1.2739 0.181445 -5.75781e-21)
(1.27315 0.169793 0)
(1.27205 0.158396 2.79405e-21)
(1.27056 0.147312 3.07146e-21)
(0.806352 0.307249 -1.26757e-21)
(0.812848 0.32542 6.3084e-22)
(0.820067 0.344387 2.72141e-22)
(0.828708 0.363935 1.4067e-23)
(0.839461 0.383565 -1.13386e-22)
(0.852982 0.403215 -3.52443e-21)
(0.869372 0.421562 8.56375e-22)
(0.888645 0.438417 -1.90892e-22)
(0.910797 0.453122 1.99169e-22)
(0.934738 0.464544 0)
(0.96042 0.472893 6.22158e-22)
(0.987322 0.477961 -4.37438e-21)
(1.01389 0.479316 2.19933e-21)
(1.03984 0.477368 -9.97426e-21)
(1.06542 0.472551 1.26127e-20)
(1.08945 0.465113 -1.31663e-20)
(1.11133 0.455538 1.52817e-20)
(1.13152 0.444225 0)
(1.15019 0.43146 -6.57382e-21)
(1.16692 0.417709 7.03131e-21)
(1.18152 0.403449 -7.42384e-21)
(1.19441 0.388776 1.50033e-20)
(1.20594 0.373724 -3.07757e-20)
(1.21617 0.358433 1.5693e-20)
(1.22489 0.343382 8.57477e-21)
(1.23226 0.328649 8.73691e-21)
(1.23866 0.313991 -1.72929e-20)
(1.24417 0.299436 3.49479e-20)
(1.24886 0.285019 0)
(1.25265 0.271079 2.73588e-20)
(1.25565 0.257608 -2.68839e-20)
(1.25804 0.244337 1.83319e-20)
(1.25987 0.231272 -1.36777e-20)
(1.26116 0.218423 4.77126e-21)
(1.26193 0.205944 4.54211e-21)
(1.26224 0.193882 -2.4858e-22)
(1.26216 0.182081 -4.8234e-21)
(1.26168 0.170492 0)
(1.26083 0.159149 -2.34774e-21)
(1.25955 0.148113 2.46567e-21)
(0.825954 0.295823 0)
(0.831776 0.311258 0)
(0.838101 0.327336 -4.49025e-21)
(0.845464 0.343917 2.30692e-21)
(0.854422 0.360651 -9.32715e-22)
(0.865517 0.37757 3.99216e-21)
(0.878921 0.393662 -2.24909e-21)
(0.894721 0.408833 0)
(0.913051 0.422561 0)
(0.933167 0.43382 -1.04805e-21)
(0.955082 0.442749 -2.75449e-21)
(0.978454 0.449072 -2.08512e-22)
(1.00203 0.452206 6.10862e-21)
(1.02552 0.452415 -7.19372e-22)
(1.04909 0.450031 -4.23468e-21)
(1.07168 0.445097 0)
(1.09266 0.437949 0)
(1.11234 0.428964 0)
(1.13082 0.4184 0)
(1.14764 0.406633 -1.07482e-20)
(1.16254 0.394087 1.08708e-20)
(1.17587 0.380914 1.76907e-20)
(1.18792 0.367188 -2.48078e-20)
(1.19872 0.353061 6.49525e-21)
(1.20804 0.338973 0)
(1.216 0.325035 -1.39187e-20)
(1.22299 0.311065 1.40145e-20)
(1.22907 0.297106 -7.50585e-21)
(1.23429 0.283208 0)
(1.23859 0.269691 -7.78335e-21)
(1.24206 0.256565 7.70722e-21)
(1.24489 0.243594 3.06341e-20)
(1.24712 0.230792 -3.09588e-20)
(1.24879 0.218172 1.55684e-20)
(1.24991 0.205884 -4.0414e-21)
(1.25053 0.193978 -1.96491e-20)
(1.25073 0.18231 7.93788e-21)
(1.25051 0.170837 3.97723e-21)
(1.24989 0.159598 -5.98339e-21)
(1.24881 0.148651 2.08497e-21)
(0.842422 0.285857 0)
(0.847746 0.299171 0)
(0.853443 0.313005 2.60934e-21)
(0.859932 0.327262 -2.62874e-21)
(0.867665 0.341679 -1.86708e-22)
(0.877083 0.356332 -2.01171e-21)
(0.888367 0.370431 2.0998e-21)
(0.901629 0.383948 2.92414e-22)
(0.917058 0.396484 -6.66245e-22)
(0.934143 0.407151 -6.22388e-22)
(0.952946 0.416057 -2.18593e-22)
(0.973259 0.422919 -1.3066e-22)
(0.994093 0.427099 1.60973e-21)
(1.01519 0.428756 3.66166e-21)
(1.03667 0.42814 5.39395e-21)
(1.05762 0.425146 5.22261e-23)
(1.07741 0.419984 -5.65989e-21)
(1.09626 0.412985 0)
(1.1142 0.404368 -7.18053e-21)
(1.13078 0.39442 7.90216e-21)
(1.14567 0.383505 -9.22309e-21)
(1.15915 0.3718 4.92431e-21)
(1.17147 0.359402 4.32869e-22)
(1.18262 0.346469 5.91825e-21)
(1.19235 0.333396 -1.0885e-20)
(1.20076 0.320317 0)
(1.2082 0.307105 1.75473e-20)
(1.21473 0.293814 -2.99728e-20)
(1.2204 0.280504 2.46126e-20)
(1.22513 0.267478 -1.90124e-20)
(1.229 0.254761 -1.27972e-20)
(1.23222 0.242153 1.28771e-20)
(1.23481 0.229671 1.31255e-20)
(1.23682 0.217336 -1.31818e-20)
(1.23825 0.205291 6.67392e-21)
(1.23916 0.193589 1.98638e-22)
(1.23961 0.182102 0)
(1.23963 0.170791 0)
(1.23922 0.159698 3.3192e-21)
(1.23833 0.148878 0)
(0.856447 0.27702 1.14411e-21)
(0.861385 0.288649 2.67564e-22)
(0.866617 0.300701 -2.73561e-22)
(0.872476 0.313105 7.65396e-24)
(0.879334 0.325652 0)
(0.887551 0.338432 1.34748e-21)
(0.897292 0.35082 -4.71398e-22)
(0.908674 0.362827 4.78906e-22)
(0.921894 0.374148 -1.65928e-22)
(0.936598 0.384032 1.25195e-22)
(0.952874 0.392575 7.71776e-22)
(0.970607 0.399516 0)
(0.989025 0.404223 -1.67842e-21)
(1.00791 0.406786 1.07145e-21)
(1.02737 0.40739 7.3149e-21)
(1.04663 0.405839 -8.06696e-21)
(1.0651 0.402241 1.45707e-20)
(1.08292 0.396876 -5.10429e-21)
(1.1001 0.389921 6.44883e-21)
(1.11617 0.381581 -7.09995e-21)
(1.13081 0.372155 0)
(1.14421 0.361829 8.20997e-21)
(1.15658 0.350711 7.96689e-21)
(1.16789 0.338952 0)
(1.17785 0.326902 0)
(1.18655 0.314711 9.17307e-21)
(1.19432 0.302293 4.84172e-21)
(1.20119 0.289713 -4.76994e-21)
(1.20721 0.27704 1.00525e-20)
(1.21228 0.264554 1.58691e-20)
(1.21649 0.252299 -1.07411e-20)
(1.22003 0.240103 0)
(1.22294 0.22799 -1.11869e-20)
(1.22524 0.215987 1.12394e-20)
(1.22695 0.20423 5.70825e-21)
(1.22811 0.192776 1.10494e-23)
(1.2288 0.181511 -5.78866e-21)
(1.22903 0.170404 0)
(1.22883 0.159494 -8.71065e-21)
(1.22811 0.148836 0)
(0.868536 0.269081 -1.46289e-21)
(0.87316 0.279344 1.60095e-21)
(0.878028 0.289953 1.4084e-21)
(0.883411 0.300853 -1.48543e-21)
(0.889617 0.311872 -1.32056e-21)
(0.896942 0.323103 -1.23874e-21)
(0.90553 0.334036 -9.1823e-22)
(0.915491 0.344707 6.56282e-22)
(0.927013 0.354882 -9.62503e-24)
(0.939841 0.363929 6.17623e-24)
(0.954075 0.371939 -1.08724e-21)
(0.969664 0.378683 -4.82331e-22)
(0.986004 0.38357 4.54564e-21)
(1.00292 0.386643 -3.71074e-21)
(1.02051 0.388046 -2.90103e-21)
(1.03813 0.387529 3.89819e-21)
(1.05524 0.385126 -7.49292e-21)
(1.07194 0.381068 -4.12325e-21)
(1.08821 0.375489 1.0299e-20)
(1.10362 0.368528 -1.04522e-20)
(1.11782 0.360422 0)
(1.13096 0.351351 0)
(1.1432 0.341424 -6.10165e-22)
(1.15448 0.330782 0)
(1.16453 0.319729 0)
(1.17339 0.308421 -8.32693e-21)
(1.18136 0.296807 -8.02107e-21)
(1.18846 0.284957 -8.30629e-21)
(1.19473 0.272946 8.29783e-21)
(1.20006 0.261033 -4.88891e-21)
(1.20454 0.249275 -3.31658e-22)
(1.20835 0.237528 9.34483e-21)
(1.21152 0.225822 0)
(1.21407 0.214187 1.44138e-20)
(1.21601 0.202755 -9.77977e-21)
(1.2174 0.191586 -9.77761e-21)
(1.2183 0.180578 4.99007e-21)
(1.21873 0.169708 -2.51591e-21)
(1.2187 0.159015 7.7317e-21)
(1.21815 0.14855 0)
(0.879058 0.261874 8.91431e-22)
(0.88342 0.271011 -6.39625e-22)
(0.887993 0.280431 -3.35142e-22)
(0.893 0.290092 1.23597e-21)
(0.8987 0.299848 1.38012e-21)
(0.90534 0.309786 -4.45727e-22)
(0.913042 0.319485 1.30805e-21)
(0.921906 0.328991 -1.16905e-21)
(0.9321 0.338125 6.36068e-22)
(0.943437 0.346352 -5.67606e-24)
(0.95602 0.353761 3.71812e-22)
(0.969835 0.360157 -9.18728e-22)
(0.984407 0.365001 2.02168e-21)
(0.999596 0.368314 1.71624e-21)
(1.01551 0.370203 4.1593e-21)
(1.03159 0.370401 3.14919e-22)
(1.04738 0.368886 -3.25898e-21)
(1.06295 0.365848 1.46497e-20)
(1.07825 0.361384 -1.99188e-20)
(1.09288 0.355579 1.79939e-20)
(1.10652 0.348614 -4.78063e-21)
(1.11927 0.340659 0)
(1.13123 0.331814 -4.99098e-22)
(1.14236 0.322207 0)
(1.15236 0.3121 0)
(1.16125 0.301646 0)
(1.16931 0.290822 5.15033e-22)
(1.17655 0.2797 2.24086e-20)
(1.18298 0.268356 -2.26886e-20)
(1.1885 0.257032 -2.06853e-22)
(1.19318 0.245792 -1.60468e-20)
(1.19719 0.234519 8.13497e-21)
(1.20056 0.223245 -7.92175e-21)
(1.20332 0.212005 -1.26319e-20)
(1.20546 0.200927 -4.12489e-21)
(1.20704 0.190071 8.59082e-21)
(1.20811 0.17935 0)
(1.20871 0.168744 -4.25514e-21)
(1.20885 0.158295 -5.37998e-21)
(1.20844 0.148049 1.13192e-21)
(0.888296 0.255278 7.47234e-22)
(0.892431 0.263471 0)
(0.896756 0.271898 -2.46225e-21)
(0.901456 0.280524 1.06702e-21)
(0.906751 0.289222 1.17494e-21)
(0.912847 0.298072 -2.31207e-22)
(0.91985 0.306721 0)
(0.927845 0.315218 5.23306e-22)
(0.936984 0.323422 -2.90933e-22)
(0.947122 0.330881 -1.05047e-22)
(0.95836 0.33768 -5.2588e-22)
(0.970705 0.343655 -3.23179e-22)
(0.98378 0.348324 -2.37591e-22)
(0.997477 0.351692 0)
(1.0119 0.353846 -5.52607e-21)
(1.02658 0.354515 6.05573e-21)
(1.04113 0.353645 0)
(1.05558 0.351387 -5.88905e-21)
(1.0699 0.347812 3.52334e-21)
(1.08372 0.342959 -7.84956e-21)
(1.09672 0.336965 3.59783e-21)
(1.10898 0.329982 0)
(1.12057 0.322102 4.9226e-21)
(1.13143 0.313435 -5.08786e-21)
(1.14128 0.304205 0)
(1.15011 0.29456 -1.17548e-20)
(1.15816 0.284495 1.22884e-20)
(1.16544 0.274081 6.64578e-21)
(1.17195 0.263397 -1.27779e-20)
(1.17758 0.252663 0)
(1.1824 0.24195 2.57468e-22)
(1.18656 0.231163 -1.37368e-20)
(1.19009 0.220337 7.36945e-21)
(1.193 0.20951 0)
(1.1953 0.198806 3.79926e-21)
(1.19703 0.188284 -3.84508e-21)
(1.19826 0.177872 3.67324e-21)
(1.199 0.167554 3.9221e-21)
(1.19928 0.157371 7.68507e-21)
(1.199 0.147367 3.8314e-21)
(0.896463 0.249199 0)
(0.9004 0.256592 0)
(0.90451 0.264178 8.62513e-23)
(0.908952 0.271928 -1.90702e-21)
(0.913911 0.27973 -7.81433e-23)
(0.919565 0.287657 -6.92856e-22)
(0.926001 0.295407 0)
(0.933295 0.303029 0)
(0.94158 0.310411 -1.39607e-22)
(0.95074 0.317167 1.42881e-22)
(0.96087 0.323379 1.65382e-22)
(0.971992 0.328907 -3.33128e-22)
(0.983799 0.333326 0)
(0.996209 0.336632 0)
(1.00932 0.338898 2.64995e-21)
(1.02275 0.33986 -3.33162e-21)
(1.03614 0.339445 5.03035e-22)
(1.04954 0.337774 3.22096e-21)
(1.0629 0.334895 -5.2784e-21)
(1.07589 0.330817 0)
(1.08822 0.325638 3.36366e-21)
(1.09993 0.319492 3.6726e-21)
(1.11109 0.312458 0)
(1.1216 0.304634 4.46745e-21)
(1.13121 0.296205 -9.19688e-21)
(1.1399 0.287312 0)
(1.14787 0.277964 5.38649e-21)
(1.15511 0.268228 -5.36621e-21)
(1.16163 0.258183 1.64511e-20)
(1.16731 0.248029 0)
(1.17221 0.237841 1.18951e-20)
(1.17646 0.227542 6.28256e-21)
(1.18009 0.217171 6.03937e-21)
(1.18313 0.206768 -6.35507e-21)
(1.18555 0.19645 6.40753e-21)
(1.1874 0.186278 0)
(1.18875 0.176191 -3.40067e-21)
(1.18961 0.166177 0)
(1.19 0.156277 -3.4616e-21)
(1.18983 0.146534 -3.53106e-21)
(0.903732 0.243564 5.16677e-22)
(0.90749 0.250271 -7.57745e-22)
(0.911412 0.257137 2.0583e-21)
(0.91563 0.264138 8.60827e-22)
(0.920304 0.271175 -7.61618e-22)
(0.925588 0.278311 9.28746e-22)
(0.931555 0.285286 -2.84342e-22)
(0.93827 0.292149 6.98885e-22)
(0.94585 0.298805 2.79493e-22)
(0.954201 0.304927 1.22628e-22)
(0.963411 0.310588 3.20827e-23)
(0.973504 0.315673 1.01186e-21)
(0.984233 0.319805 -1.0369e-21)
(0.995533 0.322977 -3.32787e-22)
(1.0075 0.325251 -3.90247e-22)
(1.0198 0.326377 6.30844e-21)
(1.03215 0.326274 -3.35131e-21)
(1.04456 0.325037 3.86102e-21)
(1.05701 0.322698 -5.0216e-21)
(1.06919 0.319244 -6.48917e-23)
(1.08084 0.314742 -3.12127e-21)
(1.09198 0.309308 3.35672e-21)
(1.10264 0.303011 -1.32354e-23)
(1.11277 0.295932 0)
(1.12208 0.288226 0)
(1.13056 0.280025 -8.26374e-21)
(1.13838 0.271344 -4.34202e-21)
(1.14553 0.262248 -4.53996e-21)
(1.15199 0.252813 -3.2223e-22)
(1.15767 0.24322 -1.50819e-20)
(1.16259 0.233547 4.89063e-21)
(1.16689 0.223733 0)
(1.17058 0.213816 -1.10806e-20)
(1.17369 0.20384 1.08876e-20)
(1.1762 0.193914 0)
(1.17814 0.184102 5.74248e-21)
(1.17958 0.17435 -2.87907e-21)
(1.18053 0.164653 -5.86485e-21)
(1.18102 0.155049 4.43701e-21)
(1.18094 0.145581 -4.42928e-21)
(0.910236 0.238316 0)
(0.913832 0.244429 0)
(0.917584 0.250673 -1.58051e-21)
(0.921604 0.257028 0)
(0.926032 0.263403 0)
(0.931 0.269856 2.38204e-22)
(0.936569 0.276159 -2.43977e-22)
(0.942799 0.282359 -6.58127e-22)
(0.949788 0.288377 -3.75622e-22)
(0.95746 0.293928 1.5394e-23)
(0.965893 0.299083 5.19909e-22)
(0.975116 0.303742 8.6686e-22)
(0.984923 0.307575 -6.40379e-22)
(0.995263 0.310571 2.98296e-22)
(1.00622 0.312786 -1.76916e-21)
(1.01753 0.313986 5.15077e-21)
(1.02893 0.314087 -2.78238e-21)
(1.04044 0.313166 3.40103e-21)
(1.05202 0.311242 0)
(1.06343 0.308287 9.64107e-21)
(1.0744 0.304343 -9.83286e-21)
(1.08496 0.299511 -5.41527e-21)
(1.09512 0.293849 -1.22517e-20)
(1.10482 0.287425 -4.16398e-22)
(1.1138 0.280367 -3.61903e-22)
(1.12202 0.272794 1.49457e-20)
(1.12964 0.264729 4.046e-21)
(1.13664 0.256231 1.21435e-20)
(1.14301 0.247372 -1.26116e-20)
(1.14862 0.238317 4.55718e-21)
(1.15352 0.229143 9.15217e-21)
(1.15783 0.219801 -9.2222e-21)
(1.16155 0.210333 0)
(1.1647 0.20078 -5.0213e-21)
(1.16725 0.191248 0)
(1.16926 0.1818 1.53209e-22)
(1.17077 0.17239 -5.09769e-21)
(1.17179 0.163017 0)
(1.17235 0.153719 5.08622e-21)
(1.17235 0.144536 1.47102e-22)
(0.916084 0.233407 8.5088e-22)
(0.919532 0.239003 -1.80722e-22)
(0.923128 0.244703 2.41798e-22)
(0.926971 0.250495 -5.11718e-24)
(0.931182 0.256296 2.08527e-21)
(0.935874 0.262154 -2.05343e-22)
(0.941101 0.267872 -1.0736e-22)
(0.946915 0.27349 -1.86636e-22)
(0.953401 0.278944 -8.20439e-23)
(0.960495 0.283985 1.23794e-22)
(0.968267 0.288677 -2.63735e-22)
(0.976745 0.292936 0)
(0.985757 0.296471 1.89923e-21)
(0.995263 0.299271 1.31332e-22)
(1.00534 0.301383 -3.18853e-21)
(1.01576 0.302597 -2.25808e-21)
(1.02631 0.302824 2.50864e-21)
(1.03699 0.302129 3.01241e-21)
(1.04778 0.30052 -3.29495e-21)
(1.05845 0.297961 0)
(1.06877 0.294477 4.61951e-21)
(1.07875 0.290152 5.42088e-21)
(1.0884 0.285035 7.62492e-22)
(1.09765 0.279183 -1.69533e-20)
(1.10627 0.2727 -5.92255e-21)
(1.1142 0.265696 0)
(1.12159 0.258194 6.95266e-21)
(1.12841 0.25025 -1.4412e-20)
(1.13463 0.24193 7.69073e-21)
(1.14015 0.233385 -3.23931e-22)
(1.145 0.22469 7.55448e-21)
(1.14927 0.215806 1.60737e-20)
(1.15298 0.206775 -4.0857e-21)
(1.15613 0.197639 0)
(1.15871 0.188498 -4.26273e-21)
(1.16075 0.179413 4.59321e-21)
(1.1623 0.170347 0)
(1.16338 0.161302 4.45778e-21)
(1.16399 0.152316 -5.92168e-21)
(1.16405 0.143426 3.55885e-21)
(0.921366 0.228801 0)
(0.924676 0.233941 0)
(0.928129 0.239164 -5.27118e-22)
(0.93181 0.244463 -4.47925e-24)
(0.935825 0.249759 -2.88991e-21)
(0.940274 0.255096 0)
(0.945202 0.260299 -6.09081e-22)
(0.950654 0.265406 9.11155e-22)
(0.956706 0.27036 0)
(0.963301 0.274944 0)
(0.970503 0.279216 0)
(0.978338 0.283105 -6.67657e-22)
(0.98666 0.286351 6.27342e-22)
(0.995436 0.288947 -1.9966e-22)
(1.00474 0.290933 -2.31053e-22)
(1.01438 0.292116 -1.11523e-22)
(1.02415 0.292413 -1.70697e-22)
(1.03407 0.291876 -2.76202e-21)
(1.04413 0.290506 0)
(1.05412 0.288261 0)
(1.06382 0.285154 0)
(1.07323 0.281255 1.32294e-20)
(1.08238 0.276605 -8.58154e-21)
(1.09118 0.271251 1.03092e-20)
(1.09942 0.265278 3.51545e-22)
(1.10704 0.258785 -5.80348e-21)
(1.11417 0.251796 5.85242e-21)
(1.12077 0.244362 -6.39318e-21)
(1.12682 0.236544 1.27778e-20)
(1.13222 0.228479 -4.27608e-22)
(1.13697 0.220239 -7.2588e-21)
(1.14118 0.211795 -4.39719e-22)
(1.14485 0.203188 -3.39004e-21)
(1.14799 0.194459 7.64855e-21)
(1.15057 0.185701 1.87218e-22)
(1.15262 0.176977 -3.93166e-21)
(1.15419 0.168255 4.02143e-21)
(1.15529 0.159539 -1.21981e-20)
(1.15595 0.150867 2.97032e-21)
(1.15604 0.142274 1.02747e-21)
(0.926155 0.224465 -2.60814e-22)
(0.929336 0.229201 4.47028e-22)
(0.932655 0.234003 1.98889e-21)
(0.936187 0.238865 9.13583e-22)
(0.940024 0.243716 1.05485e-21)
(0.944255 0.248594 -1.91054e-22)
(0.948917 0.253343 5.34163e-23)
(0.954052 0.257997 1.03997e-22)
(0.959724 0.262507 -2.5138e-22)
(0.965883 0.266681 9.78667e-23)
(0.972588 0.270574 2.19514e-22)
(0.979862 0.274121 1.39596e-22)
(0.987579 0.277095 -1.37249e-21)
(0.995714 0.279487 -2.04857e-21)
(1.00433 0.281333 1.3716e-21)
(1.01327 0.282459 3.31706e-21)
(1.02235 0.282785 2.22014e-21)
(1.03159 0.282354 -6.581e-21)
(1.04097 0.281163 0)
(1.05031 0.279167 0)
(1.05942 0.276369 3.27478e-21)
(1.0683 0.272828 7.73893e-21)
(1.07696 0.268578 -8.08218e-21)
(1.08531 0.263657 -5.66139e-22)
(1.09317 0.258135 -5.25835e-22)
(1.10047 0.252099 -4.90275e-22)
(1.10732 0.245576 4.92582e-21)
(1.11369 0.23861 5.43143e-21)
(1.11955 0.231258 -1.18468e-20)
(1.12479 0.223643 5.56219e-21)
(1.12943 0.215834 6.29372e-21)
(1.13355 0.20781 -2.51978e-22)
(1.13716 0.19961 2.71866e-22)
(1.14025 0.191275 6.79133e-21)
(1.1428 0.182893 -3.38602e-21)
(1.14484 0.174523 -7.01931e-21)
(1.14642 0.16614 3.55349e-21)
(1.14753 0.157752 3.72632e-21)
(1.14821 0.149394 -2.08075e-22)
(1.14834 0.1411 0)
(0.930511 0.220373 1.45096e-21)
(0.933571 0.224749 -2.72525e-22)
(0.936765 0.229176 -9.76586e-22)
(0.940158 0.23365 -7.75125e-22)
(0.943831 0.238106 -9.79246e-23)
(0.947864 0.242577 2.67934e-22)
(0.952289 0.246922 6.82919e-22)
(0.957139 0.251174 -3.50006e-22)
(0.962475 0.255288 0)
(0.96825 0.259095 5.65037e-24)
(0.974517 0.262644 -2.08511e-22)
(0.981298 0.265879 9.72989e-22)
(0.988482 0.268597 -1.97876e-21)
(0.996049 0.270791 8.4381e-22)
(1.00406 0.272492 2.61369e-21)
(1.01237 0.273543 -4.17321e-21)
(1.02082 0.27387 0)
(1.02944 0.273507 2.12583e-21)
(1.0382 0.27245 0)
(1.04695 0.270651 2.58711e-21)
(1.05551 0.268106 -9.32641e-21)
(1.06388 0.264866 6.28846e-21)
(1.07205 0.260959 -7.18046e-21)
(1.07997 0.256414 0)
(1.08744 0.251291 -4.03595e-21)
(1.09442 0.245666 0)
(1.10099 0.239564 -9.5372e-21)
(1.1071 0.233027 9.61714e-21)
(1.11275 0.226105 0)
(1.11783 0.21891 -1.0946e-20)
(1.12233 0.211508 -1.39638e-22)
(1.12635 0.203883 5.51218e-21)
(1.12987 0.196073 -5.80632e-21)
(1.13289 0.188117 0)
(1.13541 0.180099 0)
(1.13742 0.172076 0)
(1.13898 0.164028 9.37848e-21)
(1.14009 0.155964 -3.21715e-21)
(1.14077 0.147918 -1.86351e-22)
(1.14092 0.139923 0)
(0.934486 0.216502 -2.84084e-22)
(0.937432 0.220556 -2.42633e-22)
(0.940507 0.224648 8.03327e-22)
(0.94377 0.228775 -7.1304e-22)
(0.947292 0.232879 -1.45691e-22)
(0.951143 0.236986 6.56285e-22)
(0.955351 0.240972 -2.61109e-22)
(0.959947 0.244864 3.28652e-23)
(0.964982 0.248624 -3.36772e-22)
(0.970415 0.252101 2.9815e-23)
(0.976292 0.255338 0)
(0.982635 0.258288 4.90118e-22)
(0.989345 0.260769 1.16767e-22)
(0.996406 0.262773 -1.01293e-21)
(1.00387 0.26433 1.87438e-21)
(1.01162 0.265297 0)
(1.01951 0.265605 0)
(1.02756 0.265282 7.41685e-21)
(1.03575 0.264323 5.00195e-22)
(1.04395 0.262679 -2.34135e-21)
(1.05199 0.260343 5.12424e-21)
(1.05987 0.257358 -5.63726e-21)
(1.06759 0.253745 -2.87133e-21)
(1.07509 0.249529 -7.07361e-21)
(1.08219 0.244758 1.09812e-20)
(1.08884 0.239501 8.03241e-21)
(1.09511 0.233781 -2.0598e-20)
(1.10098 0.227635 1.27819e-20)
(1.1064 0.22111 9.26996e-21)
(1.11129 0.214307 -4.74377e-21)
(1.11565 0.207287 0)
(1.11954 0.20004 4.94064e-21)
(1.12296 0.192601 0)
(1.12591 0.185011 0)
(1.12836 0.177345 5.51589e-21)
(1.13033 0.16966 -1.09993e-20)
(1.13187 0.161939 -1.13878e-20)
(1.13296 0.154193 -5.61187e-21)
(1.13364 0.146456 -5.11484e-21)
(1.13379 0.138758 -7.191e-22)
(0.938124 0.212833 0)
(0.940961 0.216597 0)
(0.943924 0.220388 -1.48602e-21)
(0.947064 0.224204 5.02197e-23)
(0.950444 0.227991 5.43777e-22)
(0.954128 0.231773 -4.87981e-22)
(0.958138 0.235437 3.43253e-22)
(0.962502 0.239007 0)
(0.967265 0.242449 1.20283e-22)
(0.97239 0.245629 -1.05956e-22)
(0.977919 0.248584 3.77145e-22)
(0.983869 0.251273 7.07339e-22)
(0.990155 0.253534 0)
(0.996762 0.25536 -1.44104e-21)
(1.00374 0.256776 -3.9304e-21)
(1.01098 0.257655 4.39605e-21)
(1.01835 0.25793 2.91111e-22)
(1.02589 0.257628 -9.84854e-21)
(1.03356 0.25674 3.8279e-21)
(1.04125 0.255219 -1.27785e-20)
(1.04881 0.253056 -3.80316e-22)
(1.05623 0.250286 3.28127e-22)
(1.06352 0.246926 3.57422e-22)
(1.07061 0.242998 6.29733e-21)
(1.07735 0.238539 3.80737e-22)
(1.08367 0.233612 -6.42293e-21)
(1.08966 0.228238 -3.77384e-21)
(1.09526 0.222449 -4.33383e-21)
(1.10046 0.216291 7.98123e-21)
(1.10516 0.209852 -4.38575e-21)
(1.10935 0.203191 0)
(1.11311 0.196301 -9.41751e-23)
(1.11642 0.189217 -1.3894e-20)
(1.11927 0.181975 -7.72742e-23)
(1.12166 0.174649 4.87368e-21)
(1.12358 0.167291 5.1585e-21)
(1.12507 0.15989 5.24573e-21)
(1.12614 0.152456 5.32372e-21)
(1.1268 0.145022 7.78015e-21)
(1.12695 0.137617 0)
(0.941462 0.209351 2.85448e-23)
(0.944195 0.212852 -7.15291e-22)
(0.94705 0.216371 6.87408e-22)
(0.950074 0.219907 -6.55541e-22)
(0.953321 0.223408 -3.8596e-22)
(0.956849 0.226897 0)
(0.960676 0.230272 -3.29012e-22)
(0.964828 0.233552 0)
(0.969344 0.236708 1.59586e-22)
(0.97419 0.239619 7.41223e-23)
(0.979403 0.242319 -3.60535e-22)
(0.985001 0.24477 -6.75686e-22)
(0.990904 0.246829 -9.781e-22)
(0.997102 0.248487 -1.3822e-22)
(1.00364 0.249769 3.27958e-21)
(1.01042 0.250557 1.23494e-22)
(1.01733 0.250792 2.66207e-22)
(1.02439 0.250495 0)
(1.03158 0.249658 6.96479e-21)
(1.0388 0.248236 -3.56876e-21)
(1.04591 0.246216 4.39199e-21)
(1.05291 0.243629 -4.46279e-21)
(1.05978 0.240489 1.49628e-20)
(1.06648 0.236813 0)
(1.07287 0.232632 0)
(1.07888 0.228001 3.81223e-22)
(1.08458 0.222941 -6.8208e-21)
(1.08992 0.21748 0)
(1.09489 0.211659 -3.30537e-22)
(1.09939 0.205559 7.48178e-21)
(1.10342 0.199235 -3.18317e-22)
(1.10703 0.192682 8.0378e-21)
(1.11022 0.185934 4.3211e-21)
(1.11297 0.179026 -8.51004e-21)
(1.11527 0.172026 -5.77131e-23)
(1.11713 0.164984 4.46452e-21)
(1.11857 0.157893 0)
(1.11961 0.150764 2.188e-21)
(1.12024 0.143628 -2.49331e-21)
(1.12038 0.136511 -4.46219e-21)
(0.944531 0.20604 5.65715e-23)
(0.947165 0.209303 1.19438e-21)
(0.949918 0.212575 -1.56822e-22)
(0.95283 0.215857 9.64325e-22)
(0.955952 0.219101 3.48928e-22)
(0.959334 0.222325 2.02441e-22)
(0.962991 0.225438 -5.22988e-22)
(0.966947 0.228457 0)
(0.971236 0.231354 -2.77446e-22)
(0.975827 0.234022 0)
(0.980754 0.23649 0)
(0.986031 0.238725 0)
(0.991588 0.240597 1.83341e-21)
(0.997415 0.2421 0)
(1.00355 0.243253 2.00517e-22)
(1.00991 0.243952 -5.64832e-21)
(1.0164 0.244142 4.28294e-21)
(1.02302 0.243841 2.54846e-21)
(1.02978 0.24304 0)
(1.03656 0.241696 -3.28788e-21)
(1.04325 0.239797 -3.93882e-21)
(1.04984 0.237367 -5.63618e-23)
(1.05633 0.234418 -4.95729e-21)
(1.06266 0.230964 4.41937e-21)
(1.06871 0.227031 5.10224e-21)
(1.07441 0.222667 3.36203e-22)
(1.07983 0.217892 -5.75731e-21)
(1.08492 0.212731 -2.97611e-22)
(1.08965 0.207222 -3.30596e-22)