/*--------------------------------*- C++ -*----------------------------------*\
| =========                 |                                                 |
| \\      /  F ield         | OpenFOAM: The Open Source CFD Toolbox           |
|  \\    /   O peration     | Version:  3.0.1                                 |
|   \\  /    A nd           | Web:      www.OpenFOAM.org                      |
|    \\/     M anipulation  |                                                 |
\*---------------------------------------------------------------------------*/
FoamFile
{
    version     2.0;
    format      ascii;
    class       volScalarField;
    location    "350";
    object      nuTilda;
}
// * * * * * * * * * * * * * * * * * * * * * * * * * * * * * * * * * * * * * //

dimensions      [0 2 -1 0 0 0 0];

internalField   nonuniform List<scalar> 
58000
(
0.000784034
0.000727342
0.000654055
0.000587553
0.000535077
0.000494038
0.000465884
0.000442995
0.000427385
0.00041767
0.000410552
0.000406277
0.000405026
0.000403564
0.000402129
0.000401489
0.000401741
0.000402563
0.000403725
0.000405273
0.000407249
0.000409442
0.000411844
0.000414238
0.000416825
0.00041928
0.000421755
0.00042421
0.000426493
0.000428737
0.000430692
0.000432454
0.000433966
0.000435159
0.000436104
0.000436272
0.000435427
0.000434156
0.000432828
0.000433122
0.0029363
0.00261576
0.00225979
0.00193621
0.00167649
0.00147107
0.00131424
0.00118913
0.00109288
0.00102118
0.000964506
0.000921474
0.000889403
0.000863357
0.000839524
0.000820796
0.000806821
0.000794689
0.000783291
0.000773989
0.000767296
0.000761571
0.000756307
0.00075121
0.000747877
0.000744882
0.000741919
0.000738926
0.000735724
0.000733244
0.000730846
0.000727149
0.00072223
0.000716342
0.000709909
0.000702113
0.000693729
0.000685617
0.00067823
0.000675144
0.00516674
0.0047819
0.00433103
0.0038577
0.00342547
0.00305057
0.00275188
0.00250617
0.00230821
0.0021545
0.00203017
0.00192816
0.00185159
0.00179035
0.0017379
0.00169734
0.00166699
0.00164182
0.00161954
0.00160184
0.00158898
0.00157798
0.00156766
0.00155742
0.00154985
0.00154191
0.00153279
0.0015227
0.00151163
0.00150206
0.00149242
0.00148227
0.00147161
0.0014601
0.00144759
0.00143259
0.00141556
0.00139821
0.00138218
0.00137385
0.00739207
0.00696631
0.0064479
0.00590063
0.00537402
0.00488147
0.00446345
0.00410415
0.00380492
0.00356657
0.00336625
0.00319921
0.00306993
0.00296453
0.00287325
0.00280072
0.00274449
0.0026972
0.00265552
0.00262168
0.00259568
0.00257307
0.0025505
0.00252749
0.00250912
0.00249235
0.00247537
0.0024579
0.0024394
0.00242247
0.00240505
0.00238634
0.0023664
0.00234534
0.00232403
0.00229993
0.00227326
0.00224593
0.00222011
0.00220257
0.00959336
0.00914628
0.00859337
0.00800076
0.00741067
0.00684698
0.00634606
0.00589618
0.00550606
0.00518493
0.00490818
0.00467216
0.00448503
0.00432973
0.00419371
0.00408358
0.00399634
0.0039219
0.00385527
0.00379952
0.00375405
0.00371354
0.00367543
0.00363846
0.00360887
0.003581
0.00355245
0.00352309
0.00349272
0.0034662
0.00343914
0.00341024
0.00337954
0.00334719
0.00331498
0.00327978
0.00324153
0.00320229
0.00316475
0.00313567
0.0117661
0.0113064
0.0107352
0.0101138
0.00948828
0.00887521
0.00831635
0.0078025
0.00734113
0.00694942
0.00660371
0.0063019
0.0060567
0.0058497
0.00566619
0.00551439
0.00539144
0.00528543
0.00518878
0.00510595
0.00503821
0.00497804
0.00492239
0.00486768
0.00482116
0.00477867
0.00473668
0.00469474
0.00465123
0.00461119
0.00457191
0.00453165
0.00448899
0.00444407
0.00439929
0.00435134
0.00429994
0.00424725
0.00419636
0.00415377
0.0139133
0.0134459
0.0128656
0.0122287
0.0115822
0.0109368
0.0103382
0.00977399
0.00925892
0.00881154
0.00840827
0.00804701
0.007747
0.00748961
0.00725949
0.00706468
0.00690337
0.00676151
0.00663261
0.00652164
0.00643033
0.00634754
0.00626921
0.00619435
0.00613104
0.00607245
0.00601448
0.00595641
0.00589823
0.00584409
0.00579098
0.00573712
0.00568049
0.00562124
0.00556218
0.00549996
0.005434
0.00536653
0.00530086
0.00524318
0.0160382
0.0155658
0.0149813
0.0143368
0.0136784
0.0130132
0.0123862
0.011788
0.0112319
0.0107369
0.0102839
0.0098738
0.00952587
0.00922168
0.0089445
0.00870738
0.00850877
0.00833239
0.00817095
0.00803068
0.00791157
0.00780428
0.00770315
0.00760713
0.00752319
0.00744628
0.00737161
0.00729662
0.00722098
0.0071515
0.00708326
0.00701402
0.00694185
0.00686692
0.00679227
0.00671454
0.00663285
0.00654944
0.00646779
0.0063937
0.0181442
0.0176685
0.0170822
0.0164343
0.0157695
0.0150933
0.0144479
0.0138259
0.0132371
0.0127078
0.0122156
0.0117619
0.0113709
0.0110245
0.0107053
0.0104285
0.0101945
0.00998396
0.00978928
0.00961749
0.00947054
0.00933859
0.00921336
0.00909342
0.00898871
0.00889206
0.00879749
0.00870456
0.00861086
0.00852421
0.00843906
0.00835203
0.00826346
0.00817203
0.00808082
0.00798654
0.00788811
0.00778777
0.00768907
0.00759747
0.0202341
0.0197562
0.0191699
0.018521
0.0178514
0.0171708
0.0165145
0.0158766
0.0152649
0.0147079
0.0141827
0.0136951
0.0132683
0.0128847
0.0125274
0.0122131
0.0119425
0.0116983
0.0114719
0.011271
0.0110962
0.0109372
0.0107879
0.0106441
0.0105161
0.010399
0.0102843
0.0101716
0.0100584
0.00995311
0.00985001
0.00974507
0.00963882
0.00952988
0.00942104
0.00930919
0.00919307
0.00907489
0.00895824
0.00884822
0.0223105
0.0218311
0.021246
0.0205984
0.019928
0.0192446
0.0185811
0.0179322
0.0173043
0.0167251
0.0161758
0.0156599
0.0152025
0.0147853
0.0143939
0.0140459
0.0137429
0.0134679
0.0132105
0.012979
0.0127763
0.0125917
0.0124162
0.0122489
0.0120979
0.0119582
0.0118229
0.0116886
0.0115554
0.0114298
0.0113087
0.0111855
0.0110611
0.0109347
0.010807
0.0106766
0.010542
0.0104053
0.0102699
0.0101408
0.0243755
0.0238951
0.0233118
0.0226666
0.0219975
0.0213135
0.0206455
0.0199874
0.0193498
0.018755
0.0181862
0.0176456
0.0171616
0.0167182
0.0162981
0.0159202
0.0155868
0.0152807
0.0149935
0.0147344
0.0145047
0.0142929
0.0140923
0.0138994
0.0137258
0.0135639
0.0134071
0.0132513
0.013096
0.0129509
0.0128107
0.0126678
0.0125246
0.0123793
0.0122327
0.0120834
0.01193
0.0117742
0.0116197
0.0114709
0.0264309
0.0259496
0.0253684
0.0247264
0.0240598
0.023377
0.0227072
0.0220442
0.0213987
0.0207922
0.0202084
0.0196487
0.0191429
0.0186758
0.0182298
0.0178249
0.0174644
0.0171307
0.0168154
0.0165276
0.0162723
0.016035
0.0158083
0.0155913
0.0153929
0.0152078
0.0150299
0.0148531
0.0146764
0.014511
0.014351
0.0141882
0.014025
0.0138601
0.0136942
0.0135258
0.0133531
0.0131781
0.013004
0.0128351
0.0284783
0.027996
0.0274171
0.0267786
0.0261152
0.0254347
0.0247648
0.0240993
0.0234484
0.0228327
0.0222369
0.0216624
0.0211386
0.0206506
0.0201805
0.019751
0.0193658
0.0190082
0.0186674
0.0183535
0.0180714
0.01781
0.0175591
0.0173182
0.017096
0.0168873
0.016686
0.0164885
0.0162908
0.0161048
0.0159247
0.0157417
0.0155578
0.0153735
0.0151882
0.0150005
0.0148084
0.0146137
0.0144197
0.0142304
0.0305194
0.0300354
0.0294586
0.0288239
0.0281642
0.0274868
0.026818
0.0261516
0.0254974
0.0248746
0.0242678
0.0236826
0.0231441
0.0226373
0.0221491
0.0216989
0.0212908
0.0209079
0.0205424
0.0202049
0.0198981
0.0196116
0.0193378
0.0190732
0.0188279
0.0185967
0.0183723
0.0181538
0.0179353
0.0177276
0.0175278
0.0173252
0.0171212
0.0169172
0.0167122
0.0165049
0.016293
0.0160784
0.0158642
0.0156542
0.0325514
0.0320674
0.0314934
0.0308628
0.0302073
0.0295336
0.0288668
0.0282007
0.0275448
0.0269172
0.0263029
0.0257079
0.0251569
0.0246356
0.0241312
0.0236628
0.0232345
0.0228294
0.0224399
0.0220773
0.021746
0.0214372
0.0211403
0.0208503
0.0205829
0.0203319
0.0200862
0.0198455
0.0196071
0.0193788
0.0191577
0.0189359
0.0187123
0.0184884
0.0182636
0.0180364
0.0178045
0.0175697
0.0173351
0.0171042
0.0345768
0.0340931
0.0335222
0.0328961
0.0322451
0.0315755
0.0309112
0.0302465
0.0295899
0.0289592
0.0283394
0.0277364
0.0271734
0.026641
0.0261231
0.0256387
0.0251923
0.0247669
0.0243541
0.0239697
0.0236158
0.0232829
0.0229634
0.0226524
0.0223634
0.0220919
0.0218252
0.0215632
0.0213045
0.0210557
0.020814
0.0205723
0.0203287
0.0200848
0.0198399
0.0195926
0.0193406
0.0190855
0.0188302
0.0185784
0.0365965
0.0361132
0.0355456
0.0349244
0.0342781
0.0336128
0.0329516
0.0322888
0.0316326
0.031
0.0303763
0.0297674
0.0291955
0.0286525
0.0281225
0.0276238
0.0271609
0.0267173
0.0262839
0.0258774
0.0255036
0.0251492
0.0248087
0.0244762
0.0241659
0.0238739
0.0235864
0.0233035
0.0230247
0.0227555
0.0224935
0.0222318
0.0219681
0.021704
0.0214388
0.0211714
0.0208992
0.0206236
0.0203478
0.0200748
0.0386111
0.0381283
0.0375642
0.036948
0.0363071
0.0356461
0.0349882
0.0343277
0.0336726
0.033039
0.0324128
0.0317994
0.0312204
0.0306683
0.0301275
0.0296157
0.0291376
0.0286776
0.028226
0.0277999
0.0274072
0.0270315
0.0266688
0.0263171
0.0259866
0.0256744
0.0253667
0.0250635
0.0247649
0.0244756
0.0241934
0.0239118
0.0236281
0.0233438
0.0230583
0.0227708
0.0224784
0.0221824
0.021886
0.021592
0.0406205
0.0401384
0.0395779
0.0389671
0.0383328
0.0376755
0.0370209
0.0363633
0.0357098
0.0350761
0.0344482
0.0338315
0.0332467
0.0326868
0.0321366
0.031613
0.0311197
0.0306455
0.0301778
0.0297335
0.0293206
0.0289269
0.0285447
0.0281738
0.0278233
0.02749
0.0271634
0.0268407
0.0265226
0.0262136
0.0259115
0.0256103
0.0253066
0.0250019
0.0246964
0.0243889
0.0240765
0.0237603
0.0234433
0.0231284
0.042625
0.0421437
0.0415867
0.040981
0.0403521
0.0397001
0.0390496
0.0383952
0.0377441
0.0371109
0.0364824
0.0358634
0.0352739
0.0347072
0.0341488
0.0336152
0.0331096
0.0326201
0.0321379
0.031677
0.0312463
0.0308344
0.0304334
0.0300439
0.0296741
0.0293211
0.0289754
0.0286333
0.0282957
0.0279674
0.0276459
0.0273253
0.0270017
0.0266761
0.0263514
0.0260244
0.0256922
0.0253559
0.0250184
0.0246828
0.0446244
0.0441442
0.043591
0.0429904
0.0423667
0.04172
0.0410741
0.0404236
0.0397752
0.0391434
0.0385153
0.0378946
0.0373014
0.0367286
0.0361628
0.0356205
0.0351057
0.0346037
0.0341056
0.0336286
0.0331819
0.0327518
0.0323325
0.0319247
0.0315365
0.0311649
0.0308007
0.0304394
0.0300815
0.029735
0.0293949
0.0290554
0.0287125
0.0283672
0.028023
0.0276764
0.0273243
0.026968
0.0266102
0.026254
0.0466185
0.0461398
0.0455907
0.0449954
0.0443767
0.0437355
0.0430945
0.0424484
0.0418029
0.0411729
0.040547
0.0399245
0.0393294
0.0387502
0.0381774
0.0376267
0.0371022
0.0365887
0.0360773
0.0355852
0.0351212
0.0346759
0.0342397
0.0338133
0.0334086
0.0330196
0.0326376
0.0322579
0.0318812
0.0315162
0.0311575
0.0307993
0.0304376
0.0300734
0.0297098
0.0293435
0.0289716
0.0285954
0.0282174
0.0278408
0.048607
0.0481301
0.0475854
0.0469967
0.0463821
0.0457462
0.0451104
0.0444702
0.0438268
0.0431984
0.0425735
0.0419508
0.0413535
0.04077
0.0401915
0.0396332
0.0390993
0.0385751
0.0380517
0.037546
0.037067
0.0366065
0.0361543
0.0357112
0.0352899
0.0348837
0.0344845
0.034087
0.0336922
0.0333091
0.0329321
0.0325556
0.0321756
0.0317937
0.0314102
0.0310242
0.0306327
0.0302367
0.029839
0.0294424
0.0505893
0.0501144
0.0495742
0.0489907
0.0483816
0.0477515
0.0471209
0.0464855
0.0458458
0.0452195
0.0445959
0.0439736
0.0433747
0.042788
0.0422046
0.0416394
0.0410966
0.0405622
0.0400277
0.0395096
0.0390169
0.0385421
0.0380747
0.0376159
0.0371786
0.0367558
0.0363398
0.0359252
0.0355129
0.0351122
0.0347173
0.0343227
0.0339246
0.0335244
0.0331221
0.032717
0.0323064
0.031891
0.0314738
0.0310578
0.0525647
0.0520922
0.0515577
0.0509784
0.0503749
0.049751
0.0491263
0.0484954
0.0478598
0.0472363
0.0466145
0.0459931
0.0453934
0.0448044
0.0442166
0.0436448
0.0430935
0.0425491
0.0420043
0.0414748
0.0409693
0.040481
0.0399994
0.0395258
0.0390731
0.0386344
0.0382022
0.037771
0.0373418
0.036924
0.0365117
0.0360995
0.0356835
0.0352652
0.0348445
0.0344208
0.0339914
0.0335572
0.0331211
0.0326862
0.0545323
0.0540625
0.0535323
0.0529586
0.0523613
0.0517443
0.0511268
0.0504999
0.0498686
0.0492487
0.0486291
0.0480092
0.047409
0.0468195
0.0462273
0.0456492
0.0450894
0.0445342
0.0439806
0.0434405
0.0429231
0.0424221
0.0419271
0.0414394
0.0409721
0.040518
0.0400701
0.039623
0.0391776
0.0387434
0.0383141
0.0378848
0.0374513
0.0370153
0.0365766
0.0361347
0.035687
0.0352345
0.0347801
0.0343272
0.0564913
0.0560255
0.0554988
0.0549309
0.0543403
0.0537304
0.0531189
0.0524975
0.0518715
0.0512567
0.0506388
0.0500218
0.0494202
0.0488293
0.0482356
0.0476515
0.0470841
0.0465194
0.0459561
0.0454058
0.0448771
0.044364
0.0438564
0.0433554
0.0428741
0.0424053
0.0419421
0.04148
0.0410192
0.0405691
0.0401235
0.0396774
0.0392269
0.0387736
0.0383174
0.0378578
0.0373924
0.0369221
0.0364501
0.0359801
0.0584403
0.0579776
0.0574559
0.0568945
0.0563112
0.0557099
0.0551034
0.0544878
0.0538674
0.0532566
0.0526416
0.0520269
0.0514258
0.0508332
0.0502374
0.0496504
0.0490763
0.048502
0.0479293
0.0473692
0.0468299
0.0463056
0.045786
0.0452726
0.0447781
0.044295
0.0438161
0.043341
0.0428658
0.0424002
0.0419387
0.0414764
0.0410094
0.0405393
0.040066
0.0395893
0.0391067
0.0386193
0.0381306
0.0376446
0.0603789
0.0599193
0.0594034
0.0588491
0.0582733
0.0576791
0.0570791
0.0564701
0.0558569
0.0552492
0.0546376
0.0540252
0.0534263
0.0528317
0.0522329
0.0516411
0.0510603
0.0504787
0.0498982
0.0493293
0.0487802
0.0482455
0.0477149
0.0471899
0.046683
0.0461867
0.0456939
0.0452051
0.0447159
0.0442356
0.0437588
0.0432808
0.0427978
0.0423114
0.0418217
0.0413284
0.0408292
0.0403256
0.0398211
0.0393205
0.0623065
0.0618504
0.0613406
0.0607942
0.0602269
0.0596388
0.0590456
0.0584435
0.0578363
0.0572334
0.0566269
0.0560158
0.0554177
0.0548237
0.0542227
0.0536247
0.0530358
0.0524485
0.0518614
0.0512848
0.0507269
0.0501826
0.0496419
0.0491061
0.0485877
0.048079
0.0475734
0.0470715
0.0465688
0.0460744
0.0455827
0.0450895
0.044591
0.0440889
0.0435835
0.0430743
0.0425594
0.0420403
0.0415211
0.0410077
0.0642221
0.06377
0.0632667
0.0627292
0.0621685
0.0615877
0.061002
0.0604084
0.0598064
0.0592084
0.058606
0.0579977
0.0574003
0.0568051
0.0562017
0.0556005
0.0550048
0.0544114
0.0538182
0.0532348
0.0526689
0.0521159
0.0515659
0.0510203
0.0504911
0.049971
0.0494534
0.0489391
0.0484235
0.0479155
0.0474096
0.0469014
0.0463878
0.0458711
0.0453507
0.0448265
0.0442965
0.0437629
0.0432304
0.0427061
0.066125
0.0656771
0.0651805
0.0646505
0.0640976
0.0635252
0.0629475
0.0623611
0.0617661
0.0611747
0.0605756
0.0599714
0.0593749
0.0587771
0.0581703
0.0575636
0.0569641
0.056366
0.0557675
0.0551781
0.0546052
0.0540444
0.053486
0.0529314
0.0523924
0.0518616
0.0513328
0.0508068
0.050279
0.0497581
0.0492384
0.0487152
0.048188
0.0476575
0.0471228
0.0465842
0.04604
0.045493
0.0449487
0.0444157
0.0680141
0.0675709
0.0670823
0.0665589
0.0660142
0.0654509
0.0648823
0.0643022
0.0637151
0.0631282
0.0625345
0.0619323
0.0613365
0.0607388
0.0601291
0.0595172
0.0589136
0.0583114
0.0577085
0.0571139
0.0565349
0.0559671
0.0554013
0.0548385
0.0542904
0.0537498
0.0532106
0.0526737
0.0521345
0.0516014
0.0510689
0.0505322
0.0499917
0.0494476
0.0488992
0.0483468
0.0477894
0.04723
0.0466755
0.0461367
0.0698884
0.0694496
0.0689681
0.068453
0.0679175
0.0673642
0.0668027
0.0662301
0.0656496
0.0650683
0.0644791
0.0638807
0.0632855
0.062686
0.0620715
0.061458
0.0608517
0.0602464
0.0596401
0.0590413
0.058457
0.0578833
0.0573108
0.0567407
0.0561845
0.0556348
0.0550859
0.0545389
0.053989
0.0534445
0.0528999
0.0523508
0.0517975
0.0512405
0.0506791
0.0501138
0.0495439
0.0489734
0.0484105
0.047869
0.0717472
0.0713129
0.0708383
0.0703321
0.0698068
0.0692616
0.0687087
0.0681451
0.0675707
0.0669959
0.0664104
0.0658129
0.0652172
0.0646148
0.064
0.0633855
0.0627776
0.0621702
0.0615614
0.0609594
0.0603708
0.0597919
0.0592137
0.0586372
0.0580736
0.0575156
0.0569579
0.0564014
0.0558415
0.0552863
0.0547306
0.0541699
0.0536046
0.0530354
0.0524617
0.0518842
0.0513028
0.0507225
0.0501534
0.0496126
0.0735897
0.0731597
0.072692
0.0721957
0.0716784
0.0711426
0.0705997
0.0700435
0.0694772
0.0689073
0.0683241
0.0677297
0.0671337
0.0665291
0.065914
0.0652994
0.0646907
0.0640822
0.0634718
0.0628675
0.0622755
0.0616924
0.0611092
0.0605272
0.0599569
0.0593915
0.0588257
0.0582604
0.0576911
0.0571261
0.05656
0.0559884
0.055412
0.0548314
0.0542462
0.0536573
0.0530655
0.0524769
0.0519037
0.0513676
0.0754152
0.0749893
0.0745278
0.0740398
0.0735321
0.073007
0.0724723
0.0719253
0.0713654
0.0707989
0.0702199
0.0696269
0.0690291
0.0684262
0.0678124
0.0671987
0.0665903
0.0659815
0.0653705
0.0647647
0.0641703
0.0635838
0.0629966
0.0624097
0.0618336
0.0612615
0.0606883
0.0601149
0.0595365
0.0589627
0.0583872
0.0578057
0.0572189
0.0566277
0.0560317
0.0554323
0.0548311
0.0542356
0.0536608
0.0531335
0.0772228
0.076801
0.0763453
0.0758651
0.0753676
0.0748512
0.0743266
0.0737872
0.0732323
0.0726708
0.0720946
0.0715015
0.0709065
0.070306
0.0696947
0.0690829
0.0684756
0.0678675
0.0672567
0.0666506
0.0660547
0.0654656
0.064875
0.0642841
0.0637029
0.0631248
0.062545
0.0619643
0.061378
0.0607959
0.0602115
0.0596208
0.0590246
0.0584235
0.0578174
0.0572084
0.0565988
0.0559979
0.0554239
0.0549101
0.0790121
0.0785941
0.0781439
0.0776705
0.0771813
0.0766752
0.0761593
0.0756266
0.0750789
0.07452
0.0739456
0.073357
0.0727656
0.0721686
0.0715606
0.0709515
0.0703462
0.0697395
0.0691299
0.0685243
0.0679283
0.0673371
0.0667437
0.0661493
0.0655638
0.0649805
0.0643948
0.0638077
0.0632143
0.0626245
0.062032
0.061433
0.0608283
0.060218
0.0596025
0.0589845
0.0583675
0.0577628
0.0571923
0.0566967
0.0807821
0.0803681
0.0799231
0.0794559
0.0789738
0.0784756
0.0779678
0.0774442
0.0769035
0.076348
0.0757775
0.0751935
0.0746066
0.0740136
0.0734096
0.072804
0.0722014
0.0715969
0.0709892
0.0703851
0.0697908
0.0691974
0.0686016
0.0680046
0.0674153
0.0668276
0.0662368
0.0656439
0.0650442
0.0644475
0.0638476
0.0632412
0.0626298
0.0620102
0.0613857
0.0607596
0.0601363
0.0595293
0.0589649
0.0584922
0.0825322
0.0821223
0.0816825
0.0812213
0.0807456
0.0802545
0.0797538
0.0792376
0.0787039
0.0781542
0.0775892
0.0770108
0.0764289
0.0758407
0.0752414
0.0746399
0.0740407
0.0734391
0.0728338
0.0722315
0.0716383
0.0710446
0.0704476
0.0698488
0.0692567
0.0686653
0.0680701
0.067472
0.0668667
0.0662638
0.0656572
0.0650438
0.0644253
0.063798
0.0631657
0.0625324
0.0619041
0.0612963
0.0607404
0.0602954
0.0842616
0.0838559
0.0834214
0.0829663
0.0824969
0.0820125
0.0815184
0.0810091
0.0804824
0.0799393
0.0793807
0.0788085
0.0782323
0.0776494
0.0770554
0.0764586
0.0758633
0.0752652
0.0746631
0.0740632
0.0734714
0.0728781
0.0722809
0.0716813
0.0710871
0.0704926
0.0698935
0.0692909
0.0686807
0.0680722
0.0674597
0.06684
0.0662149
0.0655806
0.0649415
0.064302
0.0636696
0.0630626
0.0625177
0.0621049
0.0859695
0.0855682
0.0851392
0.0846902
0.0842272
0.0837494
0.083262
0.0827595
0.0822397
0.0817035
0.0811517
0.0805863
0.0800164
0.0794393
0.078851
0.0782595
0.0776687
0.0770748
0.0764764
0.0758797
0.0752897
0.0746974
0.0741009
0.0735014
0.0729057
0.0723085
0.0717061
0.0710993
0.0704849
0.0698718
0.0692541
0.0686288
0.0679978
0.0673574
0.0667122
0.0660675
0.0654319
0.0648269
0.0642951
0.0639187
0.087655
0.0872585
0.0868351
0.0863923
0.0859358
0.0854648
0.0849841
0.0844884
0.0839758
0.0834467
0.0829021
0.0823438
0.0817805
0.0812097
0.0806276
0.0800418
0.0794562
0.0788669
0.0782731
0.0776805
0.0770926
0.0765017
0.0759064
0.0753091
0.0747113
0.0741119
0.073507
0.0728956
0.0722783
0.0716615
0.0710395
0.0704094
0.0697733
0.0691275
0.068477
0.0678277
0.0671899
0.066588
0.0660712
0.0657347
0.0893175
0.0889258
0.0885084
0.088072
0.0876222
0.087158
0.0866842
0.0861956
0.0856902
0.0851685
0.0846313
0.0840804
0.0835241
0.08296
0.0823845
0.0818049
0.0812249
0.0806409
0.0800523
0.0794657
0.0788793
0.07829
0.0776961
0.0771
0.0765019
0.0759014
0.0752957
0.0746808
0.0740605
0.0734406
0.072815
0.0721811
0.0715405
0.0708901
0.0702349
0.0695817
0.0689423
0.0683445
0.0678442
0.0675507
0.090956
0.0905695
0.0901581
0.0897284
0.0892854
0.0888284
0.0883616
0.0878803
0.0873824
0.0868682
0.0863387
0.0857955
0.0852465
0.0846895
0.084121
0.083548
0.082974
0.0823958
0.0818127
0.0812308
0.0806478
0.080061
0.0794691
0.0788743
0.0782767
0.0776754
0.0770673
0.0764518
0.0758301
0.075208
0.0745797
0.0739431
0.0732987
0.0726441
0.0719848
0.0713282
0.070688
0.070095
0.0696123
0.069364
0.0925699
0.0921889
0.0917837
0.0913609
0.0909249
0.0904752
0.0900156
0.0895418
0.0890516
0.0885452
0.0880236
0.0874885
0.086947
0.0863974
0.0858363
0.0852704
0.0847029
0.084131
0.0835538
0.0829768
0.0823976
0.0818139
0.0812248
0.0806318
0.080035
0.0794338
0.078825
0.0782089
0.0775863
0.0769627
0.0763327
0.0756952
0.0750468
0.0743884
0.0737255
0.0730663
0.0724256
0.071838
0.0713737
0.0711721
0.0941585
0.0937831
0.0933844
0.0929686
0.0925398
0.0920976
0.0916456
0.0911794
0.0906972
0.0901988
0.0896854
0.0891585
0.088625
0.088083
0.0875297
0.0869712
0.0864109
0.0858458
0.0852753
0.0847033
0.0841281
0.0835481
0.0829625
0.0823716
0.0817761
0.0811755
0.080567
0.0799509
0.0793281
0.0787037
0.0780724
0.0774334
0.0767826
0.0761214
0.0754558
0.0747945
0.0741541
0.0735721
0.0731265
0.0729724
0.0957211
0.0953515
0.0949596
0.0945509
0.0941296
0.093695
0.0932507
0.0927924
0.0923184
0.0918284
0.0913234
0.0908049
0.0902796
0.0897456
0.0892003
0.0886498
0.088097
0.0875395
0.0869774
0.0864094
0.0858382
0.0852624
0.0846821
0.0840927
0.0834986
0.0828992
0.0822918
0.0816767
0.0810546
0.08043
0.079798
0.0791577
0.0785053
0.0778422
0.0771747
0.0765119
0.075872
0.075296
0.0748689
0.0747624
0.0972571
0.0968936
0.0965085
0.0961071
0.0956934
0.0952667
0.0948303
0.0943802
0.0939146
0.0934331
0.0929368
0.092427
0.0919101
0.0913845
0.0908476
0.0903052
0.0897605
0.0892111
0.0886558
0.0880932
0.0875267
0.0869552
0.0863791
0.0857929
0.0852013
0.0846037
0.0839983
0.0833853
0.0827651
0.0821409
0.0815084
0.0808675
0.0802141
0.0795499
0.0788811
0.0782175
0.0775785
0.0770083
0.0765994
0.0765398
0.098766
0.0984087
0.0980306
0.0976368
0.0972308
0.0968121
0.0963838
0.0959421
0.0954852
0.0950126
0.0945251
0.0940242
0.0935159
0.0929988
0.0924706
0.0919368
0.0914006
0.0908609
0.0903111
0.089754
0.0891927
0.0886258
0.0880538
0.0874716
0.0868832
0.0862878
0.0856857
0.0850758
0.0844595
0.0838354
0.0832025
0.0825617
0.0819082
0.0812436
0.0805742
0.0799102
0.0792724
0.0787079
0.0783163
0.0783022
0.100247
0.0998964
0.0995254
0.0991392
0.0987411
0.0983306
0.0979105
0.0974774
0.0970296
0.0965661
0.0960876
0.0955957
0.0950962
0.0945879
0.0940687
0.0935439
0.0930163
0.0924847
0.0919419
0.0913911
0.0908354
0.0902735
0.0897057
0.0891282
0.0885441
0.0879523
0.0873535
0.0867474
0.086134
0.0855115
0.0848798
0.0842398
0.0835869
0.0829225
0.0822531
0.0815891
0.0809526
0.0803935
0.0800183
0.0800478
0.1017
0.101356
0.100992
0.100614
0.100224
0.0998217
0.09941
0.0989857
0.0985472
0.0980936
0.0976239
0.0971409
0.0966504
0.0961512
0.0956414
0.0951259
0.0946076
0.0940835
0.0935478
0.0930039
0.0924544
0.0918979
0.0913337
0.0907621
0.0901832
0.0895961
0.0890022
0.0884001
0.0877895
0.0871693
0.0865394
0.0859009
0.0852492
0.0845858
0.0839169
0.0832535
0.0826184
0.0820641
0.081704
0.0817747
0.103125
0.102787
0.102431
0.102061
0.101679
0.101285
0.100882
0.100466
0.100037
0.0995949
0.0991332
0.0986591
0.0981778
0.097688
0.0971879
0.0966824
0.0961746
0.0956571
0.0951285
0.0945918
0.0940493
0.093499
0.09294
0.0923739
0.0917999
0.0912183
0.0906313
0.0900335
0.0894252
0.0888075
0.0881802
0.0875441
0.0868944
0.0862326
0.0855648
0.0849022
0.0842686
0.0837188
0.0833722
0.0834814
0.104521
0.10419
0.103841
0.103479
0.103105
0.10272
0.102325
0.101918
0.101499
0.101066
0.100614
0.10015
0.0996778
0.0991977
0.0987078
0.0982125
0.0977135
0.0972038
0.096683
0.0961543
0.0956198
0.095076
0.0945229
0.0939622
0.0933928
0.0928175
0.0922364
0.0916436
0.0910388
0.0904248
0.0898016
0.0891687
0.0885217
0.087862
0.0871958
0.0865345
0.0859025
0.0853565
0.0850218
0.0851664
0.105887
0.105564
0.105223
0.104868
0.104503
0.104126
0.10374
0.103342
0.102932
0.102509
0.102066
0.101612
0.10115
0.10068
0.100201
0.0997168
0.0992251
0.0987232
0.0982106
0.0976906
0.097166
0.0966282
0.0960811
0.0955264
0.0949628
0.0943936
0.0938184
0.093231
0.0926312
0.0920219
0.0914035
0.0907743
0.0901304
0.0894733
0.0888092
0.0881495
0.087519
0.0869763
0.0866519
0.0868286
0.107225
0.106908
0.106575
0.106229
0.105871
0.105503
0.105126
0.104737
0.104336
0.103922
0.10349
0.103045
0.102594
0.102134
0.101666
0.101191
0.100708
0.100215
0.0997108
0.0991997
0.0986838
0.0981536
0.0976136
0.0970653
0.0965086
0.0959459
0.0953771
0.0947957
0.0942016
0.0935979
0.0929861
0.0923601
0.0917193
0.0910653
0.0904038
0.0897462
0.0891174
0.0885775
0.0882616
0.0884671
0.108533
0.108223
0.107898
0.10756
0.107211
0.106851
0.106483
0.106103
0.105711
0.105307
0.104885
0.10445
0.104009
0.103561
0.103104
0.102637
0.102162
0.101678
0.101183
0.100682
0.100174
0.0996522
0.0991197
0.0985779
0.0980292
0.0974741
0.096912
0.0963371
0.0957491
0.0951513
0.0945451
0.0939239
0.0932873
0.0926371
0.0919789
0.0913237
0.0906968
0.0901591
0.0898502
0.090081
0.109811
0.109509
0.109191
0.108861
0.108521
0.10817
0.107811
0.10744
0.107057
0.106663
0.10625
0.105826
0.105396
0.104959
0.104511
0.104053
0.103587
0.103112
0.102628
0.102138
0.101638
0.101124
0.100599
0.100066
0.0995253
0.098978
0.098423
0.0978547
0.0972731
0.0966816
0.0960811
0.0954652
0.0948336
0.0941878
0.0935334
0.0928812
0.0922564
0.0917206
0.091417
0.0916698
0.111059
0.110765
0.110455
0.110133
0.109802
0.10946
0.109109
0.108747
0.108374
0.10799
0.107587
0.107173
0.106753
0.106326
0.105887
0.105439
0.104983
0.104518
0.104044
0.103564
0.103073
0.102568
0.102052
0.101528
0.100996
0.100457
0.0999093
0.0993475
0.0987728
0.0981882
0.0975938
0.0969836
0.0963573
0.0957166
0.0950667
0.094418
0.0937955
0.0932613
0.0929616
0.0932331
0.112278
0.111991
0.111689
0.111376
0.111053
0.11072
0.110378
0.110025
0.109662
0.109287
0.108895
0.108491
0.10808
0.107662
0.107234
0.106796
0.106349
0.105894
0.105433
0.104961
0.104478
0.103985
0.103478
0.102963
0.102442
0.101912
0.10137
0.100815
0.100247
0.0996713
0.0990825
0.0984781
0.0978578
0.0972229
0.096578
0.0959334
0.0953136
0.0947807
0.0944835
0.0947705
0.113467
0.113188
0.112894
0.112589
0.112274
0.11195
0.111617
0.111274
0.11092
0.110556
0.110175
0.109781
0.109378
0.108968
0.10855
0.108123
0.107687
0.107242
0.10679
0.106327
0.105855
0.105371
0.104875
0.104371
0.103859
0.103337
0.102802
0.102254
0.101695
0.101127
0.100545
0.0999479
0.0993344
0.0987059
0.0980668
0.0974268
0.0968101
0.0962784
0.0959825
0.0962819
0.114627
0.114355
0.114069
0.113772
0.113466
0.113151
0.112827
0.112493
0.112149
0.111795
0.111426
0.111041
0.110648
0.110247
0.109839
0.109421
0.108995
0.10856
0.108117
0.107665
0.107202
0.106729
0.106243
0.10575
0.105246
0.104732
0.104206
0.103667
0.103115
0.102556
0.101982
0.101393
0.100787
0.100165
0.0995327
0.098898
0.0982847
0.097754
0.0974582
0.0977669
0.115757
0.115493
0.115215
0.114927
0.114629
0.114322
0.114007
0.113683
0.113348
0.113004
0.112646
0.112271
0.111888
0.111497
0.111099
0.110691
0.110275
0.109849
0.109416
0.108973
0.108521
0.108057
0.107583
0.107099
0.106605
0.106099
0.105582
0.105051
0.104509
0.103958
0.103393
0.102812
0.102215
0.101601
0.100975
0.100347
0.0997371
0.0992074
0.0989106
0.0992254
0.116858
0.116601
0.116331
0.116051
0.115762
0.115464
0.115158
0.114843
0.114518
0.114183
0.113836
0.113471
0.113098
0.112718
0.11233
0.111932
0.111525
0.111109
0.110684
0.110252
0.10981
0.109358
0.108894
0.10842
0.107935
0.107439
0.106931
0.10641
0.105876
0.105335
0.104779
0.104207
0.103618
0.103013
0.102395
0.101772
0.101167
0.100638
0.100339
0.100657
0.11793
0.11768
0.117419
0.117147
0.116867
0.116577
0.11628
0.115974
0.115659
0.115334
0.114996
0.114643
0.11428
0.11391
0.113532
0.113144
0.112748
0.112341
0.111926
0.111504
0.111072
0.11063
0.110176
0.109712
0.109237
0.108751
0.108252
0.107741
0.107218
0.106686
0.10614
0.105577
0.104997
0.1044
0.103791
0.103175
0.102574
0.102047
0.101745
0.102063
0.118973
0.118731
0.118477
0.118214
0.117942
0.117662
0.117373
0.117076
0.11677
0.116455
0.116128
0.115786
0.115434
0.115073
0.114704
0.114327
0.113941
0.113545
0.11314
0.112727
0.112306
0.111874
0.11143
0.110975
0.110511
0.110035
0.109547
0.109046
0.108533
0.108011
0.107475
0.106922
0.106351
0.105764
0.105163
0.104554
0.103959
0.103432
0.103126
0.103442
0.119988
0.119753
0.119507
0.119252
0.118989
0.118717
0.118438
0.11815
0.117853
0.117548
0.117232
0.116901
0.116559
0.116208
0.115848
0.115482
0.115106
0.114721
0.114326
0.113922
0.113511
0.11309
0.112657
0.112212
0.111758
0.111292
0.110815
0.110324
0.109823
0.109311
0.108785
0.108242
0.107681
0.107103
0.106511
0.10591
0.10532
0.104795
0.104485
0.104795
0.120974
0.120747
0.120509
0.120262
0.120007
0.119744
0.119474
0.119195
0.118908
0.118612
0.118306
0.117988
0.117656
0.117314
0.116964
0.116608
0.116244
0.115869
0.115484
0.11509
0.11469
0.114279
0.113856
0.113422
0.112978
0.112523
0.112055
0.111577
0.111088
0.110587
0.11007
0.109537
0.108986
0.108418
0.107835
0.107242
0.106658
0.106134
0.105819
0.106121
0.121933
0.121713
0.121483
0.121244
0.120998
0.120744
0.120482
0.120212
0.119934
0.119648
0.119353
0.119045
0.118723
0.118393
0.118053
0.117707
0.117353
0.116988
0.116614
0.116231
0.11584
0.11544
0.115028
0.114605
0.114172
0.113727
0.113271
0.112803
0.112326
0.111835
0.111329
0.110806
0.110266
0.109708
0.109134
0.10855
0.107972
0.107451
0.10713
0.107422
0.122864
0.122652
0.122429
0.122199
0.121961
0.121715
0.121462
0.121202
0.120933
0.120656
0.120371
0.120074
0.119763
0.119443
0.119114
0.118778
0.118434
0.118081
0.117717
0.117344
0.116963
0.116574
0.116173
0.115761
0.115339
0.114905
0.11446
0.114004
0.113538
0.113058
0.112563
0.11205
0.11152
0.110973
0.110409
0.109834
0.109263
0.108744
0.108418
0.108697
0.123768
0.123563
0.123349
0.123126
0.122897
0.122659
0.122415
0.122164
0.121904
0.121637
0.121361
0.121075
0.120776
0.120467
0.120148
0.119821
0.119488
0.119145
0.118793
0.118431
0.11806
0.117681
0.117291
0.11689
0.116479
0.116056
0.115623
0.11518
0.114725
0.114255
0.11377
0.113269
0.11275
0.112213
0.11166
0.111094
0.11053
0.110013
0.109682
0.109946
0.124646
0.124448
0.124241
0.124027
0.123806
0.123577
0.123342
0.123099
0.122848
0.122591
0.122325
0.122049
0.121763
0.121463
0.121154
0.120838
0.120515
0.120183
0.119842
0.119491
0.119131
0.118762
0.118383
0.117993
0.117593
0.117181
0.116759
0.116329
0.115885
0.115426
0.114953
0.114462
0.113954
0.113429
0.112886
0.11233
0.111774
0.111259
0.110922
0.11117
0.125497
0.125307
0.125108
0.124902
0.124688
0.124468