/*--------------------------------*- C++ -*----------------------------------*\
| =========                 |                                                 |
| \\      /  F ield         | OpenFOAM: The Open Source CFD Toolbox           |
|  \\    /   O peration     | Version:  3.0.1                                 |
|   \\  /    A nd           | Web:      www.OpenFOAM.org                      |
|    \\/     M anipulation  |                                                 |
\*---------------------------------------------------------------------------*/
FoamFile
{
    version     2.0;
    format      ascii;
    class       volScalarField;
    location    "350";
    object      p;
}
// * * * * * * * * * * * * * * * * * * * * * * * * * * * * * * * * * * * * * //

dimensions      [0 2 -2 0 0 0 0];

internalField   nonuniform List<scalar> 
58000
(
-0.0910351
-0.37348
-0.588617
-0.712704
-0.784319
-0.834983
-0.868326
-0.888746
-0.899694
-0.901163
-0.896816
-0.88846
-0.875843
-0.861297
-0.84708
-0.833688
-0.820728
-0.808851
-0.798047
-0.787801
-0.777578
-0.768045
-0.7592
-0.750605
-0.741772
-0.732856
-0.72448
-0.716412
-0.708306
-0.699955
-0.691572
-0.683627
-0.675935
-0.668232
-0.660328
-0.651295
-0.639177
-0.62658
-0.616635
-0.608875
0.209627
0.0816635
-0.0608133
-0.201833
-0.323697
-0.428247
-0.51603
-0.59411
-0.656847
-0.704126
-0.739748
-0.763486
-0.776908
-0.783639
-0.784519
-0.780854
-0.774898
-0.767709
-0.759702
-0.751281
-0.742836
-0.734535
-0.726186
-0.717837
-0.709469
-0.701451
-0.693466
-0.685448
-0.677374
-0.669272
-0.661496
-0.65376
-0.645977
-0.638064
-0.630048
-0.621903
-0.612919
-0.603864
-0.596661
-0.592313
0.144656
0.0503313
-0.0474958
-0.149047
-0.244473
-0.333004
-0.412479
-0.48209
-0.543767
-0.593735
-0.634188
-0.666081
-0.688587
-0.70371
-0.713416
-0.718174
-0.719175
-0.717747
-0.714679
-0.710434
-0.705392
-0.699799
-0.693784
-0.687505
-0.681085
-0.67457
-0.66784
-0.660976
-0.654012
-0.647063
-0.640116
-0.633035
-0.625862
-0.618581
-0.61125
-0.603861
-0.596204
-0.58848
-0.58129
-0.574554
0.159114
0.0972585
0.0287795
-0.0482753
-0.128037
-0.207803
-0.283155
-0.352878
-0.416972
-0.471995
-0.519655
-0.560157
-0.591753
-0.615935
-0.634712
-0.647836
-0.65595
-0.660628
-0.662813
-0.662888
-0.661289
-0.658522
-0.65491
-0.650629
-0.645838
-0.640682
-0.635169
-0.629368
-0.623298
-0.617093
-0.610824
-0.604375
-0.597766
-0.590988
-0.584117
-0.57726
-0.570358
-0.563423
-0.556655
-0.550097
0.137934
0.0926283
0.0440622
-0.0119069
-0.0726432
-0.136959
-0.201773
-0.264354
-0.324877
-0.379199
-0.428138
-0.47183
-0.507956
-0.537213
-0.561602
-0.580532
-0.594084
-0.603815
-0.610678
-0.6149
-0.616806
-0.617037
-0.616082
-0.614137
-0.61136
-0.60787
-0.603842
-0.599375
-0.594506
-0.589384
-0.584023
-0.578403
-0.57256
-0.566504
-0.560333
-0.554122
-0.547847
-0.541485
-0.535073
-0.528591
0.12607
0.0906281
0.0532636
0.0102708
-0.0370497
-0.0885281
-0.142648
-0.196741
-0.251235
-0.302133
-0.349666
-0.393771
-0.431911
-0.4642
-0.492371
-0.515536
-0.533364
-0.547292
-0.558192
-0.566124
-0.571289
-0.5744
-0.576039
-0.576394
-0.575592
-0.573775
-0.571249
-0.568132
-0.564466
-0.560385
-0.555926
-0.551133
-0.546052
-0.540694
-0.535154
-0.529513
-0.523775
-0.517901
-0.511882
-0.50573
0.113259
0.0845621
0.054853
0.020827
-0.0167374
-0.0581085
-0.10284
-0.148555
-0.196155
-0.242094
-0.286251
-0.328578
-0.366567
-0.399833
-0.429861
-0.455604
-0.476369
-0.493413
-0.507496
-0.518528
-0.526553
-0.532278
-0.536335
-0.538891
-0.540039
-0.539907
-0.538907
-0.537174
-0.534754
-0.531776
-0.528277
-0.524365
-0.520091
-0.515474
-0.510609
-0.505568
-0.500374
-0.494991
-0.489387
-0.483588
0.102361
0.0782724
0.0537172
0.0258362
-0.00480768
-0.038631
-0.0757944
-0.114265
-0.155291
-0.195903
-0.235837
-0.275145
-0.311541
-0.344298
-0.374678
-0.401596
-0.424089
-0.44321
-0.45959
-0.473012
-0.483366
-0.491308
-0.497481
-0.502015
-0.504959
-0.506413
-0.50687
-0.506472
-0.505265
-0.503367
-0.500818
-0.497778
-0.494305
-0.490422
-0.486219
-0.481767
-0.477107
-0.472207
-0.467033
-0.461635
0.092731
0.0720464
0.0512128
0.027744
0.00211658
-0.0260954
-0.0573506
-0.0898996
-0.12517
-0.160746
-0.196331
-0.2321
-0.266083
-0.29736
-0.327015
-0.354019
-0.377231
-0.397498
-0.415336
-0.430435
-0.442556
-0.452265
-0.460187
-0.466404
-0.470931
-0.473818
-0.475615
-0.476459
-0.476395
-0.475531
-0.4739
-0.471707
-0.469016
-0.465852
-0.4623
-0.458428
-0.454295
-0.449877
-0.445137
-0.440151
0.0843092
0.0662123
0.0481584
0.0279685
0.00607138
-0.0179215
-0.0445896
-0.0724073
-0.102859
-0.133979
-0.16549
-0.197678
-0.228902
-0.258169
-0.286421
-0.312738
-0.335892
-0.356555
-0.375135
-0.39127
-0.404614
-0.415632
-0.424911
-0.432484
-0.438338
-0.442463
-0.445439
-0.447396
-0.448368
-0.448457
-0.447683
-0.446289
-0.444339
-0.441858
-0.43893
-0.435616
-0.431991
-0.428041
-0.423729
-0.419154
0.0769126
0.0608508
0.044946
0.0272727
0.00822583
-0.0125336
-0.0356156
-0.0596702
-0.0861556
-0.113464
-0.141353
-0.17018
-0.198607
-0.225648
-0.252131
-0.27727
-0.299827
-0.320325
-0.33908
-0.355711
-0.369794
-0.381698
-0.39196
-0.400563
-0.407473
-0.412621
-0.416596
-0.419512
-0.421395
-0.422337
-0.422342
-0.421681
-0.420414
-0.418568
-0.416224
-0.413437
-0.410296
-0.406793
-0.402893
-0.398721
0.0703956
0.0559752
0.0417775
0.0260897
0.00927868
-0.00894824
-0.0291887
-0.0502361
-0.0734759
-0.0975735
-0.122324
-0.148125
-0.173894
-0.198698
-0.223273
-0.246965
-0.268576
-0.288514
-0.307024
-0.323724
-0.338148
-0.350571
-0.361477
-0.370809
-0.378515
-0.38447
-0.389255
-0.392969
-0.395625
-0.397308
-0.398003
-0.397996
-0.397346
-0.396077
-0.394268
-0.391969
-0.389279
-0.386195
-0.382684
-0.378896
0.0646303
0.0515629
0.0387542
0.0246705
0.00965366
-0.00654838
-0.0245017
-0.0431215
-0.0636979
-0.0851047
-0.107168
-0.130304
-0.153643
-0.176315
-0.198983
-0.221112
-0.241578
-0.260702
-0.278677
-0.295132
-0.30958
-0.322219
-0.333481
-0.343277
-0.351542
-0.3581
-0.363515
-0.367867
-0.371159
-0.373466
-0.374753
-0.375316
-0.375209
-0.374454
-0.373127
-0.371273
-0.368995
-0.366297
-0.363149
-0.35972
0.0595094
0.0475781
0.035922
0.0231614
0.00961389
-0.00493859
-0.0210213
-0.0376548
-0.0560279
-0.0751768
-0.0949519
-0.115769
-0.136924
-0.157626
-0.17847
-0.199029
-0.218264
-0.236429
-0.253677
-0.269665
-0.283902
-0.29652
-0.307904
-0.317938
-0.326554
-0.333534
-0.339413
-0.344254
-0.348049
-0.350864
-0.352647
-0.353694
-0.354054
-0.353748
-0.352847
-0.35139
-0.349483
-0.347135
-0.344318
-0.341221
0.0549431
0.0439811
0.0332984
0.0216482
0.00932546
-0.003859
-0.0183882
-0.0333747
-0.0499067
-0.0671504
-0.0849755
-0.103783
-0.123002
-0.141915
-0.161062
-0.180104
-0.198093
-0.215233
-0.231646
-0.247018
-0.260874
-0.273293
-0.284616
-0.294707
-0.303496
-0.310738
-0.316936
-0.322132
-0.326308
-0.329522
-0.331707
-0.333154
-0.333909
-0.333987
-0.333455
-0.332345
-0.330767
-0.328732
-0.326213
-0.323419
0.0508567
0.0407327
0.030884
0.0201804
0.00889455
-0.00313815
-0.0163587
-0.0299617
-0.0449398
-0.0605638
-0.0767203
-0.0937889
-0.111298
-0.128605
-0.146199
-0.163811
-0.180581
-0.19668
-0.212207
-0.226876
-0.240236
-0.252328
-0.26345
-0.273456
-0.282278
-0.28965
-0.296038
-0.30147
-0.305917
-0.309433
-0.311934
-0.313703
-0.314781
-0.315179
-0.31496
-0.31415
-0.312859
-0.311099
-0.308845
-0.306322
0.0471864
0.0377951
0.0286706
0.0187846
0.00838895
-0.00266014
-0.0147642
-0.027191
-0.0408438
-0.0550801
-0.0697997
-0.0853573
-0.101361
-0.117235
-0.133419
-0.149702
-0.165311
-0.180387
-0.195014
-0.208936
-0.22173
-0.233406
-0.244227
-0.254041
-0.262786
-0.270178
-0.276649
-0.282215
-0.286839
-0.290567
-0.293305
-0.295325
-0.29666
-0.297319
-0.29736
-0.296804
-0.295758
-0.294236
-0.292215
-0.289933
0.043879
0.0351346
0.0266457
0.0174746
0.00785251
-0.00234641
-0.0134865
-0.0249015
-0.037413
-0.0504501
-0.063924
-0.0781633
-0.0928393
-0.107435
-0.122347
-0.137409
-0.151926
-0.16602
-0.179761
-0.192924
-0.205111
-0.216315
-0.226765
-0.236309
-0.244888
-0.252214
-0.258681
-0.264297
-0.269015
-0.272879
-0.275785
-0.27799
-0.279523
-0.280389
-0.280641
-0.280295
-0.279456
-0.278137
-0.276318
-0.274246
0.0408895
0.0327213
0.0247958
0.0162557
0.00731311
-0.00214253
-0.0124415
-0.0229773
-0.0344961
-0.0464888
-0.0588754
-0.0719585
-0.0854599
-0.0989144
-0.112681
-0.126627
-0.140129
-0.153293
-0.166179
-0.178589
-0.190154
-0.200852
-0.210886
-0.220104
-0.228454
-0.235646
-0.242039
-0.247634
-0.252381
-0.256314
-0.259327
-0.261662
-0.263339
-0.264362
-0.264781
-0.264606
-0.263938
-0.26279
-0.261143
-0.259254
0.0381801
0.030529
0.0231069
0.0151288
0.00678881
-0.00201063
-0.0115687
-0.0213331
-0.0319813
-0.0430567
-0.0544877
-0.0665513
-0.0790094
-0.0914436
-0.104178
-0.117107
-0.129671
-0.141964
-0.154036
-0.165713
-0.176656
-0.186834
-0.196424
-0.20528
-0.213354
-0.22036
-0.226626
-0.232145
-0.236863
-0.240812
-0.24388
-0.246294
-0.248069
-0.249207
-0.249753
-0.249713
-0.249182
-0.248176
-0.246674
-0.24494
0.035718
0.0285345
0.0215658
0.0140919
0.00629068
-0.00192421
-0.0108243
-0.0199062
-0.0297843
-0.0400485
-0.0506339
-0.0617932
-0.073321
-0.0848405
-0.0966433
-0.108646
-0.120347
-0.131828
-0.143132
-0.154105
-0.164439
-0.174093
-0.183228
-0.191699
-0.199464
-0.206247
-0.212345
-0.217744
-0.222389
-0.226308
-0.229388
-0.231839
-0.233673
-0.234888
-0.235524
-0.235588
-0.235166
-0.234273
-0.232891
-0.231288
0.0334752
0.026717
0.0201595
0.0131414
0.00582521
-0.00186548
-0.0101765
-0.0186495
-0.027842
-0.0373836
-0.0472158
-0.0575686
-0.0682632
-0.0789601
-0.0899218
-0.101081
-0.111988
-0.122714
-0.133298
-0.143601
-0.153344
-0.162483
-0.171158
-0.179233
-0.186669
-0.193203
-0.199102
-0.204348
-0.208886
-0.212739
-0.215794
-0.218247
-0.220105
-0.221364
-0.222062
-0.2222
-0.22186
-0.221057
-0.219773
-0.218279
0.0314272
0.0250581
0.0188758
0.0122721
0.00539543
-0.00182171
-0.00960192
-0.0175281
-0.0261057
-0.0349997
-0.0441568
-0.0537861
-0.063731
-0.0736851
-0.083885
-0.0942759
-0.104452
-0.114479
-0.124388
-0.134059
-0.143235
-0.151871
-0.160092
-0.167768
-0.174866
-0.181132
-0.18681
-0.191878
-0.196281
-0.20004
-0.203042
-0.205467
-0.20732
-0.208597
-0.20933
-0.209517
-0.209237
-0.208502
-0.207296
-0.20589
0.0295535
0.0235417
0.0177035
0.0114788
0.00500295
-0.001784
-0.00908309
-0.0165147
-0.0245373
-0.0328473
-0.0413961
-0.0503731
-0.0596404
-0.0689211
-0.0784291
-0.0881184
-0.0976238
-0.107002
-0.116282
-0.125357
-0.133993
-0.142144
-0.149921
-0.157202
-0.163957
-0.169945
-0.175388
-0.180261
-0.184509
-0.18815
-0.191076
-0.193451
-0.195276
-0.196546
-0.197291
-0.197507
-0.197266
-0.196581
-0.195436
-0.1941
0.0278356
0.0221536
0.0166324
0.0107562
0.0046478
-0.00174591
-0.00860669
-0.0155885
-0.0231072
-0.0308879
-0.0388856
-0.047272
-0.0559246
-0.0645932
-0.0734704
-0.0825179
-0.0914057
-0.100184
-0.108879
-0.117394
-0.125518
-0.133204
-0.140551
-0.147444
-0.153857
-0.159563
-0.164762
-0.169427
-0.173505
-0.177013
-0.179844
-0.182149
-0.183927
-0.185171
-0.18591
-0.186137
-0.185919
-0.185266
-0.184167
-0.182885
0.0262578
0.0208813
0.0156536
0.0100989
0.00432889
-0.00170369
-0.00816301
-0.0147339
-0.0217931
-0.0290915
-0.0365878
-0.044437
-0.0525296
-0.0606395
-0.0689403
-0.0773991
-0.0857178
-0.0939411
-0.10209
-0.110081
-0.11772
-0.124963
-0.131896
-0.138412
-0.144488
-0.149912
-0.154862
-0.159312
-0.163212
-0.166573
-0.169296
-0.171516
-0.173231
-0.174435
-0.175151
-0.175374
-0.175164
-0.174532
-0.173464
-0.172223
0.0248061
0.0197136
0.0147585
0.0095018
0.00404447
-0.00165505
-0.00774512
-0.0139386
-0.0205771
-0.0274343
-0.0344722
-0.0418307
-0.0494116
-0.0570097
-0.0647816
-0.0726992
-0.0804927
-0.0882014
-0.0958437
-0.103343
-0.110525
-0.117346
-0.123882
-0.130035
-0.135782
-0.140926
-0.145627
-0.149859
-0.153573
-0.15678
-0.159384
-0.161508
-0.16315
-0.1643
-0.164982
-0.165188
-0.164975
-0.16435
-0.163304
-0.162091
0.0234682
0.0186406
0.0139396
0.0089598
0.00379266
-0.00159864
-0.00734764
-0.0131932
-0.0194448
-0.0258966
-0.0325138
-0.0394224
-0.0465338
-0.0536618
-0.0609473
-0.0683661
-0.0756739
-0.0829054
-0.0900756
-0.097116
-0.103867
-0.110288
-0.116446
-0.122249
-0.127677
-0.132546
-0.137001
-0.141014
-0.14454
-0.147588
-0.150065
-0.152086
-0.153644
-0.154732
-0.15537
-0.15555
-0.155323
-0.154697
-0.153662
-0.152468
0.0222332
0.0176533
0.0131899
0.00846826
0.00357124
-0.00153354
-0.00696647
-0.0124901
-0.0183846
-0.0244626
-0.0306921
-0.0371864
-0.0438658
-0.050561
-0.0573983
-0.0643563
-0.071214
-0.0780018
-0.0847323
-0.0913433
-0.0976898
-0.103732
-0.10953
-0.114998
-0.120119
-0.12472
-0.128932
-0.132729
-0.136066
-0.138952
-0.141299
-0.14321
-0.144679
-0.145698
-0.146284
-0.146429
-0.146181
-0.145547
-0.144516
-0.143332
0.0210914
0.0167437
0.012503
0.00802275
0.00337794
-0.00145976
-0.0065988
-0.0118234
-0.0173872
-0.0231193
-0.0289904
-0.0351025
-0.0413828
-0.0476778
-0.0541011
-0.060633
-0.0670727
-0.0734476
-0.0797682
-0.0859775
-0.0919435
-0.0976281
-0.103085
-0.108234
-0.113059
-0.117401
-0.121376
-0.124961
-0.128111
-0.130835
-0.133048
-0.134847
-0.136222
-0.137166
-0.137694
-0.1378
-0.137525
-0.136877
-0.135844
-0.134664
0.0200341
0.0159045
0.0118731
0.0076191
0.00321056
-0.00137735
-0.00624252
-0.0111887
-0.0164452
-0.0218561
-0.027395
-0.0331531
-0.039064
-0.0449882
-0.0510276
-0.0571643
-0.0632158
-0.0692063
-0.0751443
-0.0809778
-0.0865862
-0.091933
-0.0970669
-0.101912
-0.106454
-0.110545
-0.114292
-0.117669
-0.120636
-0.123198
-0.125279
-0.126962
-0.128242
-0.129108
-0.129576
-0.129637
-0.129332
-0.128664
-0.127625
-0.126443
0.0190537
0.0151294
0.0112949
0.00725363
0.00306703
-0.00128685
-0.00589607
-0.0105821
-0.0155522
-0.0206645
-0.0258944
-0.0313237
-0.0368919
-0.0424717
-0.0481545
-0.0539237
-0.059614
-0.0652464
-0.0708271
-0.0763086
-0.0815806
-0.0866099
-0.091437
-0.0959937
-0.100266
-0.104117
-0.107642
-0.110819
-0.113605
-0.116009
-0.117958
-0.119527
-0.120709
-0.121497
-0.121901
-0.121917
-0.121577
-0.120888
-0.11984
-0.118652
0.0181434
0.0144127
0.010764
0.00692303
0.00294521
-0.00118887
-0.00555845
-0.010001
-0.0147036
-0.0195373
-0.024479
-0.0296022
-0.0348513
-0.0401106
-0.0454618
-0.0508891
-0.0562425
-0.0615404
-0.066787
-0.0719388
-0.0768956
-0.0816245
-0.0861627
-0.0904457
-0.0944605
-0.0980819
-0.101395
-0.104376
-0.10699
-0.109239
-0.111057
-0.112513
-0.113599
-0.114307
-0.114648
-0.114616
-0.114241
-0.113529
-0.11247
-0.111274
0.0172969
0.0137491
0.0102761
0.00662415
0.00284299
-0.00108432
-0.00522882
-0.00944274
-0.0138952
-0.0184682
-0.0231407
-0.0279784
-0.0329299
-0.03789
-0.0429319
-0.0480406
-0.0530795
-0.0580647
-0.0629991
-0.0678423
-0.0725022
-0.0769489
-0.0812139
-0.0852377
-0.0890084
-0.0924104
-0.0955195
-0.0983144
-0.100759
-0.102859
-0.10455
-0.105895
-0.106887
-0.107516
-0.107794
-0.107714
-0.107304
-0.106568
-0.105497
-0.104294
0.0165088
0.013134
0.00982743
0.00635399
0.00275842
-0.000973847
-0.00490654
-0.00890552
-0.0131232
-0.0174521
-0.0218726
-0.0264432
-0.0311168
-0.0357973
-0.0405501
-0.0453611
-0.0501066
-0.0547995
-0.0594413
-0.063995
-0.0683768
-0.072557
-0.0765642
-0.080343
-0.083882
-0.0870748
-0.0899899
-0.0926046
-0.0948885
-0.0968434
-0.0984116
-0.0996494
-0.100549
-0.101102
-0.101318
-0.101191
-0.100746
-0.0999867
-0.098906
-0.0976946
0.0157742
0.0125633
0.0094144
0.00610981
0.00268979
-0.0008582
-0.0045913
-0.00838779
-0.012385
-0.0164847
-0.0206687
-0.0249892
-0.0294025
-0.0338211
-0.0383035
-0.042837
-0.0473075
-0.0517264
-0.0560947
-0.0603771
-0.0644963
-0.0684261
-0.0721901
-0.0757374
-0.079057
-0.0820512
-0.0847803
-0.0872252
-0.0893537
-0.0911699
-0.0926202
-0.0937539
-0.0945641
-0.0950436
-0.0951998
-0.0950274
-0.0945494
-0.0937695
-0.0926797
-0.0914624
0.0150886
0.0120332
0.00903388
0.00588926
0.00263554
-0.000738148
-0.00428301
-0.00788843
-0.0116781
-0.0155622
-0.0195239
-0.0236097
-0.0277788
-0.031952
-0.0361819
-0.040455
-0.0446682
-0.0488308
-0.0529417
-0.056969
-0.0608426
-0.0645359
-0.0680707
-0.0713995
-0.0745115
-0.077317
-0.0798706
-0.0821516
-0.0841337
-0.0858177
-0.087154
-0.0881882
-0.088914
-0.089322
-0.0894218
-0.0892066
-0.0886982
-0.0878993
-0.0868034
-0.0855827
0.0144482
0.0115403
0.00868308
0.00569022
0.00259415
-0.000614532
-0.00398145
-0.00740629
-0.0110002
-0.0146813
-0.0184339
-0.0222987
-0.026239
-0.0301822
-0.0341748
-0.0382045
-0.0421763
-0.0460976
-0.0499677
-0.053756
-0.0573974
-0.0608687
-0.0641876
-0.06731
-0.0702259
-0.0728528
-0.0752386
-0.0773664
-0.0792077
-0.0807655
-0.0819944
-0.0829343
-0.0835781
-0.0839202
-0.0839661
-0.0837115
-0.0831755
-0.0823612
-0.0812619
-0.0800418
0.0138491
0.0110816
0.00835952
0.00551067
0.00256415
-0.000487982
-0.00368654
-0.00694043
-0.0103496
-0.0138392
-0.0173944
-0.0210519
-0.024777
-0.0285041
-0.0322746
-0.0360754
-0.0398204
-0.0435159
-0.0471591
-0.0507223
-0.0541466
-0.0574084
-0.0605236
-0.0634516
-0.0661822
-0.0686399
-0.0708682
-0.0728485
-0.0745581
-0.0759969
-0.0771228
-0.0779728
-0.0785414
-0.0788197
-0.0788165
-0.0785259
-0.077966
-0.0771397
-0.0760411
-0.0748257
0.0132884
0.0106542
0.00806087
0.00534883
0.00254437
-0.000359202
-0.00339821
-0.00649006
-0.00972463
-0.0130334
-0.0164028
-0.0198648
-0.023388
-0.0269121
-0.030473
-0.0340591
-0.0375911
-0.0410737
-0.0445044
-0.0478566
-0.0510754
-0.0541404
-0.0570639
-0.0598085
-0.0623644
-0.0646626
-0.0667407
-0.0685839
-0.0701674
-0.0714932
-0.0725231
-0.0732891
-0.0737848
-0.0740061
-0.0739568
-0.0736344
-0.0730544
-0.0722203
-0.0711263
-0.0699205
0.0127629
0.0102558
0.00778504
0.00520315
0.0025337
-0.000228774
-0.00311656
-0.00605484
-0.00912416
-0.0122622
-0.015456
-0.0187343
-0.0220672
-0.0253995
-0.0287639
-0.0321478
-0.0354794
-0.0387624
-0.0419926
-0.0451459
-0.0481726
-0.0510516
-0.0537946
-0.0563665
-0.0587577
-0.060905
-0.0628428
-0.0645544
-0.0660206
-0.0672406
-0.0681789
-0.0688656
-0.0692961
-0.0694623
-0.0693725
-0.0690221
-0.0684261
-0.0675881
-0.0665032
-0.0653115
0.0122699
0.00988386
0.00753005
0.00507206
0.00253108
-9.73219e-05
-0.00284174
-0.00563437
-0.00854736
-0.0115238
-0.0145519
-0.0176566
-0.02081
-0.0239621
-0.0271407
-0.0303347
-0.0334777
-0.0365722
-0.0396145
-0.0425812
-0.0454259
-0.0481303
-0.0507033
-0.0531125
-0.0553488
-0.0573541
-0.0591583
-0.0607483
-0.0621026
-0.0632226
-0.0640764
-0.0646899
-0.0650573
-0.0651756
-0.0650487
-0.0646742
-0.0640666
-0.0632288
-0.0621574
-0.0609848
0.011807
0.00953632
0.00729408
0.00495411
0.00253543
3.45541e-05
-0.00257382
-0.00522823
-0.00799302
-0.0108168
-0.013688
-0.0166287
-0.0196129
-0.0225944
-0.0255986
-0.0286134
-0.0315787
-0.0344963
-0.0373611
-0.0401518
-0.0428262
-0.0453658
-0.0477787
-0.0500347
-0.0521251
-0.0539965
-0.0556763
-0.0571497
-0.0584004
-0.0594274
-0.0602011
-0.0607458
-0.0610577
-0.0611305
-0.0609712
-0.0605773
-0.0599616
-0.0591281
-0.0580739
-0.0569252
0.011372
0.00921127
0.00707548
0.00484797
0.00254579
0.000166266
-0.00231291
-0.00483585
-0.00746056
-0.0101395
-0.0128624
-0.015648
-0.0184722
-0.0212932
-0.0241321
-0.0269783
-0.0297763
-0.0325266
-0.0352248
-0.0378502
-0.0403634
-0.0427482
-0.0450103
-0.0471223
-0.0490754
-0.050821
-0.0523826
-0.0537487
-0.0549009
-0.0558404
-0.0565405
-0.0570223
-0.0572811
-0.0573148
-0.0571269
-0.0567171
-0.0560972
-0.0552717
-0.0542386
-0.0531178
0.0109627
0.00890689
0.00687275
0.00475245
0.00256129
0.000297331
-0.00205888
-0.00445723
-0.00694875
-0.00949067
-0.0120729
-0.0147119
-0.017385
-0.0200537
-0.0227373
-0.0254242
-0.0280643
-0.0306574
-0.0331982
-0.0356676
-0.0380299
-0.0402685
-0.0423888
-0.0443652
-0.0461891
-0.0478162
-0.049268
-0.0505314
-0.0515929
-0.0524511
-0.0530819
-0.0535049
-0.0537175
-0.0537144
-0.0535025
-0.0530802
-0.0524597
-0.0516454
-0.0506364
-0.0495467
0.0105774
0.00862164
0.00668454
0.00466649
0.00258118
0.000427442
-0.00181216
-0.00409167
-0.00645713
-0.00886897
-0.0113179
-0.0138179
-0.0163481
-0.0188733
-0.0214095
-0.0239465
-0.0264377
-0.0288821
-0.031275
-0.0335977
-0.0358171
-0.0379184
-0.0399053
-0.0417541
-0.0434566
-0.0449726
-0.0463201
-0.0474893
-0.0484646
-0.0492468
-0.0498142
-0.0501839
-0.0503521
-0.050318
-0.050085
-0.0496539
-0.0490356
-0.0482352
-0.0472528
-0.046197
0.0102143
0.00835401
0.00650962
0.00458912
0.0026048
0.000555928
-0.00157244
-0.00373917
-0.00598475
-0.00827316
-0.0105956
-0.0129642
-0.0153591
-0.0177481
-0.0201457
-0.0225408
-0.0248913
-0.027196
-0.0294488
-0.0316332
-0.0337185
-0.0356902
-0.0375516
-0.0392804
-0.0408689
-0.0422802
-0.043531
-0.0446101
-0.0455063
-0.0462182
-0.0467259
-0.0470458
-0.047176
-0.0471126
-0.0468624
-0.0464251
-0.0458115
-0.0450274
-0.0440732
-0.0430527
0.00987196
0.0081027
0.00634687
0.00451944
0.00263143
0.000682731
-0.00134003
-0.00339922
-0.00553091
-0.00770215
-0.00990458
-0.0121485
-0.0144154
-0.016676
-0.0189418
-0.0212032
-0.023421
-0.0255931
-0.0277146
-0.0297687
-0.0317271
-0.033577
-0.0353202
-0.0369362
-0.0384176
-0.0397308
-0.04089
-0.0418867
-0.0427077
-0.0433538
-0.0438072
-0.0440819
-0.0441755
-0.0440878
-0.0438226
-0.0433815
-0.042775
-0.0420082
-0.0410836
-0.0400991
0.00954881
0.0078665
0.00619529
0.00445669
0.00266071
0.000807291
-0.00111471
-0.00307156
-0.005095
-0.00715493
-0.00924344
-0.0113692
-0.013515
-0.0156534
-0.0177952
-0.01993
-0.0220222
-0.0240698
-0.0260667
-0.0279978
-0.0298374
-0.0315722
-0.0332041
-0.0347142
-0.0360949
-0.0373159
-0.0383901
-0.0393079
-0.0400601
-0.0406453
-0.0410475
-0.0412803
-0.0413425
-0.0412317
-0.0409544
-0.0405116
-0.0399129
-0.0391652
-0.0382699
-0.0373213
0.00924364
0.00764431
0.00605396
0.00440025
0.00269188
0.000929598
-0.000896618
-0.00275592
-0.00467641
-0.00663056
-0.00861088
-0.0106246
-0.0126554
-0.0146785
-0.0167024
-0.0187177
-0.0206915
-0.0226209
-0.0245008
-0.0263162
-0.028043
-0.0296698
-0.0311971
-0.0326073
-0.0338936
-0.0350281
-0.0360218
-0.0368675
-0.0375543
-0.0380826
-0.0384383
-0.0386328
-0.0386648
-0.0385349
-0.038247
-0.0378036
-0.0372145
-0.0364852
-0.0356195
-0.0347055
0.00895523
0.00743511
0.00592207
0.00434927
0.00272474
0.00104919
-0.000685672
-0.002452
-0.00427456
-0.00612818
-0.0080057
-0.00991304
-0.011835
-0.0137485
-0.0156613
-0.0175634
-0.019425
-0.0212434
-0.0230122
-0.0247183
-0.0263394
-0.0278641
-0.0292928
-0.0306093
-0.0318068
-0.03286
-0.033779
-0.0345558
-0.0351826
-0.0356583
-0.03597
-0.0361289
-0.036135
-0.0359866
-0.0356902
-0.0352475
-0.0346675
-0.0339574
-0.0331193
-0.0322382
0.00868249
0.00723797
0.00579877
0.00430333
0.00275867
0.00116601
-0.000481809
-0.00215954
-0.00388893
-0.00564694
-0.00742677
-0.00923315
-0.0110518
-0.0128618
-0.0146688
-0.0164641
-0.0182198
-0.0199326
-0.0215972
-0.0232002
-0.0247211
-0.0261499
-0.0274858
-0.0287141
-0.0298282
-0.0308053
-0.0316536
-0.0323673
-0.032937
-0.0333633
-0.033635
-0.0337615
-0.0337422
-0.0335784
-0.0332742
-0.0328325
-0.0322625
-0.0315695
-0.0307585
-0.0299074
0.0084244
0.00705204
0.00568342
0.00426178
0.00279348
0.00127988
-0.000284993
-0.00187826
-0.00351898
-0.00518608
-0.00687304
-0.00858358
-0.0103043
-0.0120158
-0.0137231
-0.0154171
-0.0170725
-0.018686
-0.0202515
-0.0217572
-0.0231843
-0.0245223
-0.0257709
-0.0269162
-0.027952
-0.0288574
-0.0296401
-0.0302934
-0.0308108
-0.0311913
-0.0314249
-0.031521
-0.0314799
-0.0313009
-0.0309901
-0.0305499
-0.0299885
-0.0293129
-0.0285256
-0.027702
0.00818002
0.00687653
0.00557542
0.00422423
0.00282876
0.00139064
-9.51613e-05
-0.00160792
-0.00316424
-0.00474485
-0.0063435
-0.00796302
-0.00959078
-0.0112091
-0.0128215
-0.0144198
-0.0159804
-0.0174996
-0.0189721
-0.020386
-0.0217239
-0.0229767
-0.0241432
-0.0252103
-0.0261725
-0.0270107
-0.0277313
-0.0283292
-0.0287967
-0.0291343
-0.0293331
-0.0294013
-0.0293385
-0.0291467
-0.0288295
-0.0283905
-0.0278378
-0.0271768
-0.0264121
-0.0256121
0.0079485
0.00671081
0.00547407
0.00419018
0.00286431
0.00149818
8.77388e-05
-0.00134826
-0.00282425
-0.00432256
-0.00583722
-0.00737028
-0.00890988
-0.0104395
-0.0119624
-0.0134699
-0.0149407
-0.0163711
-0.0177552
-0.0190825
-0.0203368
-0.021509
-0.0225979
-0.0235917
-0.0244847
-0.0252597
-0.0259225
-0.0264673
-0.0268889
-0.0271866
-0.0273524
-0.0273941
-0.0273125
-0.0271075
-0.0267847
-0.0263468
-0.0258011
-0.0251541
-0.0244084
-0.0236291
0.00772906
0.00655405
0.00537893
0.00415928
0.00289973
0.0016024
0.000263799
-0.00109902
-0.00249854
-0.00391852
-0.00535329
-0.0068042
-0.00826009
-0.00970592
-0.0111435
-0.0125653
-0.0139512
-0.0152972
-0.0165982
-0.0178437
-0.0190186
-0.0201151
-0.0211311
-0.0220557
-0.0228837
-0.0235993
-0.0242073
-0.0247034
-0.0250812
-0.0253413
-0.0254767
-0.0254941
-0.0253937
-0.0251773
-0.0248487
-0.0244112
-0.023872
-0.0232363
-0.0225079
-0.0217457
0.0075209
0.00640577
0.00528943
0.00413104
0.00293499
0.00170321
0.000433094
-0.00085994
-0.00218666
-0.00353212
-0.0048909
-0.00626378
-0.00764026
-0.00900621
-0.0103634
-0.0117038
-0.0130091
-0.0142757
-0.0154977
-0.0166659
-0.0177665
-0.0187912
-0.0197385
-0.0205981
-0.0213649
-0.0220246
-0.0225816
-0.023031
-0.0233686
-0.0235936
-0.0237
-0.0236942
-0.0235771
-0.023349
-0.0230149
-0.0225776
-0.0220433
-0.021418
-0.0207035
-0.0199554
0.00732336
0.00626527
0.00520512
0.00410532
0.00296969
0.00180057
0.00059572
-0.00063079
-0.00188818
-0.00316274
-0.00444925
-0.00574798
-0.00704898
-0.00833946
-0.00962002
-0.0108834
-0.0121126
-0.0133037
-0.0144515
-0.0155469
-0.0165768
-0.017534
-0.0184165
-0.0192148
-0.0199241
-0.0205314
-0.02104
-0.0214465
-0.0217455
-0.0219375
-0.0220172
-0.0219899
-0.021856
-0.0216175
-0.0212777
-0.0208398
-0.0203099
-0.0196924
-0.0189905
-0.0182534
0.00713574
0.00613215
0.0051256
0.00408161
0.00300384
0.00189439
0.000751756
-0.00041133
-0.00160272
-0.0028098
-0.00402758
-0.00525585
-0.00648527
-0.00770384
-0.00891206
-0.0101024
-0.0112594
-0.0123794
-0.0134567
-0.0144832
-0.0154468
-0.0163402
-0.0171617
-0.0179023
-0.0185574
-0.0191152
-0.0195789
-0.0199442
-0.0202077
-0.020369
-0.020423
-0.0203751
-0.0202263
-0.0199771
-0.0196318
-0.019193
-0.0186659
-0.0180558
-0.0173634
-0.0166353
0.00695757
0.00600579
0.00505046
0.00405984
0.00303709
0.00198465
0.000901306
-0.000201329
-0.00132989
-0.00247276
-0.00362516
-0.00478648
-0.00594791
-0.00709847
-0.0082377
-0.009359
-0.0104478
-0.0115001
-0.0125112
-0.0134727
-0.0143732
-0.0152067
-0.0159706
-0.0166569
-0.0172611
-0.0177725
-0.0181935
-0.018521
-0.0187505
-0.0188827
-0.0189131
-0.0188461
-0.0186823
-0.0184236
-0.0180726
-0.0176324
-0.0171079
-0.0165029
-0.0158194
-0.015098
0.00678809
0.00588584
0.00497934
0.00403951
0.00306944
0.0020713
0.00104445
-5.61759e-07
-0.0010693
-0.00215108
-0.0032413
-0.00433901
-0.00543594
-0.00652166
-0.00759588
-0.00865158
-0.00967572
-0.0106644
-0.0116125
-0.0125124
-0.013354
-0.0141307
-0.0148403
-0.0154755
-0.0160318
-0.0164995
-0.0168807
-0.0171719
-0.0173702
-0.0174752
-0.017483
-0.0173978
-0.0172208
-0.0169522
-0.0165959
-0.0161541
-0.0156311
-0.0150313
-0.0143545
-0.0136388
0.00662693
0.00577175
0.00491185
0.00402061
0.0031006
0.00215432
0.0011813
0.000191193
-0.000820612
-0.00184426
-0.00287534
-0.00391262
-0.00494823
-0.0059727
-0.00698489
-0.00797866
-0.00894167
-0.00986985
-0.0107587
-0.0116007
-0.0123861
-0.0131094
-0.013768
-0.014355
-0.0148662
-0.0152929
-0.0156364
-0.0158943
-0.0160627
-0.0161421
-0.0161291
-0.0160271
-0.0158367
-0.0155596
-0.015198
-0.0147545
-0.0142331
-0.0136369
-0.0129668
-0.0122557
0.00647344
0.00566317
0.00484777
0.00400271
0.00313061
0.00223369
0.00131195
0.000374149
-0.00058347
-0.00155182
-0.00252665
-0.00350652
-0.00448398
-0.00545009
-0.00640383
-0.0073388
-0.00824384
-0.00911508
-0.00994762
-0.0107348
-0.0114676
-0.0121404
-0.0127509
-0.0132925
-0.0137614
-0.0141494
-0.0144579
-0.0146838
-0.0148248
-0.0148804
-0.0148476
-0.0147297
-0.0145277
-0.0142419
-0.0138756
-0.0134305
-0.0129102
-0.0123182
-0.0116536
-0.0109472
0.00632726
0.00555971
0.0047867
0.0039858
0.00315921
0.0023094
0.00143649
0.000548519
-0.000357543
-0.0012733
-0.00219466
-0.00311996
-0.00404218
-0.00495316
-0.00585117
-0.00673062
-0.00758084
-0.00839794
-0.00917761
-0.00991307
-0.010596
-0.0112214
-0.0117865
-0.0122855
-0.0127146
-0.0130663
-0.0133416
-0.0135383
-0.0136531
-0.0136864
-0.0136355
-0.013503
-0.0132895
-0.0129964
-0.0126255
-0.0121791
-0.0116605
-0.0110719
-0.0104135
-0.00971172
0.00618785
0.00546103
0.00472845
0.0039695
0.00318644
0.00238145
0.00155504
0.00071451
-0.000142505
-0.00100825
-0.00187878
-0.00275226
-0.00362212
-0.00448055
-0.00532609
-0.00615277
-0.00695108
-0.00771725
-0.00844665
-0.00913324
-0.00976943
-0.0103499
-0.0108725
-0.0113314
-0.011723
-0.0120407
-0.0122853
-0.0124539
-0.0125449
-0.0125575
-0.0124894
-0.0123433
-0.01212
-0.0118196
-0.0114452
-0.010998
-0.0104809
-0.00989689
-0.0092443
-0.00854818
0.00605486
0.00536676
0.00467268
0.00395383
0.00321206
0.00244984
0.00166768
0.000872326
6.19591e-05
-0.000756236
-0.00157846
-0.00240275
-0.00322286
-0.00403169
-0.00482717
-0.00560407
-0.00635332
-0.00707108
-0.0077533
-0.0083939
-0.00898565
-0.00952406
-0.0100065
-0.0104277
-0.0107843
-0.0110701
-0.0112856
-0.0114288
-0.011497
-0.0114904
-0.0114068
-0.0112484
-0.0110155
-0.0107095
-0.0103319
-0.00988448
-0.00937002
-0.00879026
-0.00814497
-0.00745522
0.00592782
0.00527659
0.00461922
0.00393841
0.00323614
0.00251457
0.00177453
0.00102216
0.000256149
-0.000516854
-0.00129319
-0.00207079
-0.00284376
-0.00360536
-0.0043537
-0.00508336
-0.00578614
-0.00645839
-0.00709578
-0.00769294
-0.00824317
-0.00874181
-0.00918652
-0.00957236
-0.00989608
-0.0101521
-0.0103407
-0.0104596
-0.0105072
-0.0104829
-0.0103848
-0.010215
-0.0099744
-0.00966298
-0.00928326
-0.00883648
-0.00832495
-0.00775114
-0.00711316
-0.00643153
0.00580641
0.00519021
0.00456776
0.0039233
0.00325847
0.00257566
0.00187569
0.00116421
0.000440357
-0.000289709
-0.00102246
-0.00175574
-0.00248399
-0.003201
-0.00390443
-0.00458953
-0.00524841
-0.00587744
-0.00647283
-0.00702908
-0.00753988
-0.00800128
-0.00841055
-0.00876324
-0.00905619
-0.00928434
-0.00944766
-0.00954458
-0.00957263
-0.00953202
-0.00942106
-0.00924137
-0.00899329
-0.00867809
-0.00829697
-0.00785163
-0.00734434
-0.00677658
-0.00614789
-0.00547553
0.00569021
0.00510734
0.00451814
0.00390816
0.00327911
0.00263312
0.00197124
0.00129866
0.000614863
-7.442e-05
-0.000765794
-0.00145704
-0.00214293
-0.00281749
-0.00347869
-0.0041215
-0.00473887
-0.00532732
-0.00588279
-0.00640043