/*--------------------------------*- C++ -*----------------------------------*\
| =========                 |                                                 |
| \\      /  F ield         | OpenFOAM: The Open Source CFD Toolbox           |
|  \\    /   O peration     | Version:  3.0.1                                 |
|   \\  /    A nd           | Web:      www.OpenFOAM.org                      |
|    \\/     M anipulation  |                                                 |
\*---------------------------------------------------------------------------*/
FoamFile
{
    version     2.0;
    format      ascii;
    class       surfaceScalarField;
    location    "350";
    object      phi;
}
// * * * * * * * * * * * * * * * * * * * * * * * * * * * * * * * * * * * * * //

dimensions      [0 3 -1 0 0 0 0];

internalField   nonuniform List<scalar> 
115520
(
0.013813
-0.00182258
-0.0119904
0.0148618
-0.00104881
0.0149392
-7.72799e-05
0.0144951
0.000444079
0.0137973
0.000697888
0.0130052
0.000792059
0.0123028
0.000702486
0.0116517
0.000651059
0.0111556
0.000496172
0.0108148
0.000340837
0.0105815
0.00023337
0.0104655
0.000115978
0.0104685
-2.91142e-06
0.0105324
-6.39344e-05
0.0106373
-0.000104791
0.0107838
-0.000146522
0.0109594
-0.000175589
0.0111447
-0.000185232
0.0113304
-0.000185733
0.0115175
-0.000187072
0.0117091
-0.00019154
0.0118948
-0.000185735
0.0120707
-0.000175806
0.0122336
-0.000162878
0.012393
-0.000159459
0.012544
-0.000150982
0.012684
-0.000139891
0.0128112
-0.000127201
0.0129243
-0.00011311
0.0130308
-0.000106483
0.0131264
-9.55709e-05
0.0132099
-8.34995e-05
0.0132809
-7.09387e-05
0.0133389
-5.80271e-05
0.0133736
-3.47118e-05
0.013357
1.66429e-05
0.0133143
4.27311e-05
0.0132734
4.08734e-05
0.0132639
9.50011e-06
-4.42951e-05
0.0133082
0.00901649
-0.0029501
-0.00788897
0.0100238
-0.00205606
0.0109712
-0.00102468
0.0118132
-0.000397857
0.0124934
1.77076e-05
0.012982
0.00030341
0.0133156
0.000368898
0.01349
0.000476747
0.0135807
0.000405473
0.0136176
0.000303968
0.0135975
0.00025352
0.0135679
0.000145594
0.0135691
-4.18119e-06
0.0135733
-6.80664e-05
0.0135883
-0.000119757
0.0136445
-0.000202757
0.0137269
-0.000257886
0.0138198
-0.000278126
0.0139212
-0.000287127
0.0140414
-0.000307271
0.0141769
-0.000327054
0.0143127
-0.000321551
0.0144467
-0.000309724
0.0145762
-0.000292417
0.0147156
-0.000298772
0.0148491
-0.000284514
0.0149748
-0.00026554
0.0150912
-0.00024364
0.0151972
-0.000219024
0.015303
-0.000212351
0.0153981
-0.000190628
0.0154815
-0.000166861
0.0155523
-0.000141682
0.0156093
-0.000115082
0.015656
-8.13706e-05
0.015688
-1.53822e-05
0.0157098
2.09753e-05
0.0157274
2.33265e-05
0.0157472
-1.03342e-05
-8.09004e-05
0.0157838
0.00840594
-0.00398844
-0.0073676
0.00934689
-0.002997
0.0102093
-0.00188704
0.0109474
-0.00113596
0.0116011
-0.000635998
0.0121743
-0.000269774
0.0126449
-0.000101642
0.0130407
8.09114e-05
0.0133504
9.58107e-05
0.0135931
6.12496e-05
0.0137781
6.85154e-05
0.0139244
-6.45412e-07
0.0140572
-0.00013698
0.014172
-0.000182856
0.0142782
-0.000225906
0.0144001
-0.000324698
0.0145321
-0.000389801
0.0146662
-0.000412266
0.0148031
-0.000423974
0.0149511
-0.000455325
0.0151076
-0.000483465
0.0152619
-0.000475903
0.0154132
-0.000461044
0.0155601
-0.000439267
0.0157119
-0.000450556
0.0158566
-0.000429199
0.0159929
-0.000401857
0.0161202
-0.000370919
0.0162376
-0.000336429
0.0163516
-0.000326251
0.0164539
-0.000292951
0.0165441
-0.000257079
0.0166218
-0.00021931
0.0166862
-0.000179486
0.0167393
-0.00013451
0.0167781
-5.41331e-05
0.0168032
-4.18065e-06
0.0168191
7.45832e-06
0.016827
-1.81746e-05
-8.06054e-05
0.0168267
0.0076381
-0.00487515
-0.0067514
0.00850342
-0.00386231
0.00934911
-0.00273272
0.0101216
-0.00190841
0.0108267
-0.00134116
0.0114611
-0.000904119
0.0120117
-0.000652209
0.0125051
-0.000412475
0.0129286
-0.000327707
0.0132945
-0.000304667
0.0136102
-0.000247146
0.0138825
-0.000272904
0.0141261
-0.000380593
0.0143422
-0.000398939
0.0145364
-0.000420071
0.0147259
-0.000514266
0.0149113
-0.00057517
0.0150898
-0.000590716
0.0152634
-0.000597551
0.0154402
-0.000632168
0.0156196
-0.000662886
0.0157943
-0.000650551
0.0159637
-0.000630464
0.0161272
-0.000602683
0.0162928
-0.000616157
0.0164506
-0.000587009
0.0165994
-0.000550636
0.0167385
-0.000510012
0.0168672
-0.000465136
0.0169913
-0.000450386
0.0171037
-0.000405283
0.0172036
-0.000357025
0.0172907
-0.000306379
0.0173644
-0.000253193
0.0174273
-0.000197416
0.0174774
-0.000104169
0.0175137
-4.04616e-05
0.0175378
-1.66743e-05
0.0175508
-3.1166e-05
-8.21306e-05
0.0175524
0.00723342
-0.00569263
-0.00641594
0.00804674
-0.00467563
0.0088638
-0.00354977
0.00964092
-0.00268552
0.0103768
-0.00207705
0.0110614
-0.00158868
0.0116712
-0.00126204
0.0122343
-0.000975589
0.0127308
-0.000824203
0.0131713
-0.000745063
0.0135656
-0.000641447
0.0139146
-0.000621915
0.0142272
-0.000693206
0.0145098
-0.000681498
0.0147662
-0.000676532
0.0150079
-0.000755935
0.0152377
-0.000804955
0.0154553
-0.000808351
0.0156632
-0.000805356
0.015868
-0.000837007
0.0160704
-0.000865256
0.0162654
-0.000845525
0.0164529
-0.000818034
0.0166328
-0.000782579
0.0168117
-0.000794998
0.0169816
-0.00075693
0.0171416
-0.000710611
0.0172911
-0.000659545
0.0174297
-0.000603711
0.0175619
-0.00058255
0.0176817
-0.000525076
0.0177886
-0.000463905
0.0178822
-0.000399989
0.0179622
-0.00033321
0.0180308
-0.000265933
0.0180862
-0.000159609
0.0181273
-8.15771e-05
0.0181545
-4.38308e-05
0.0181677
-4.43601e-05
-8.07857e-05
0.0181663
0.00694108
-0.00646711
-0.00616661
0.00771899
-0.00545354
0.00850859
-0.00433938
0.00927748
-0.00345441
0.0100246
-0.00282417
0.0107394
-0.00230345
0.0113945
-0.00191712
0.0120141
-0.00159526
0.0125735
-0.00138355
0.0130798
-0.00125138
0.0135432
-0.00110478
0.0139602
-0.00103893
0.0143356
-0.00106861
0.0146786
-0.00102448
0.014992
-0.000989939
0.0152828
-0.00104675
0.0155555
-0.00107767
0.0158116
-0.00106439
0.0160533
-0.00104708
0.0162864
-0.00107014
0.0165125
-0.00109126
0.0167283
-0.0010614
0.0169344
-0.00102412
0.0171308
-0.000978937
0.0173231
-0.000987331
0.0175052
-0.000939021
0.0176763
-0.000881664
0.0178359
-0.000819171
0.0179837
-0.000751487
0.0181236
-0.000722447
0.0182505
-0.000651951
0.0183638
-0.000577266
0.0184634
-0.000499509
0.0185488
-0.0004186
0.0186219
-0.000339101
0.0186815
-0.0002192
0.0187262
-0.000126261
0.018756
-7.35741e-05
0.0187706
-5.90041e-05
-7.99445e-05
0.0187698
0.00674357
-0.0072196
-0.00599109
0.00750122
-0.00621119
0.00827176
-0.00510991
0.00903053
-0.00421317
0.00977832
-0.00357196
0.0105069
-0.00303205
0.0111898
-0.00260003
0.0118485
-0.00225398
0.0124559
-0.00199087
0.0130158
-0.00181131
0.0135376
-0.00162653
0.0140143
-0.00151563
0.0144468
-0.0015011
0.0148459
-0.00142358
0.0152132
-0.00135732
0.0155521
-0.00138557
0.0158678
-0.00139341
0.0161631
-0.0013597
0.0164403
-0.00132419
0.0167037
-0.00133355
0.0169555
-0.00134306
0.0171943
-0.00130026
0.0174209
-0.00125064
0.0176354
-0.00119348
0.0178428
-0.00119468
0.0180383
-0.00113454
0.0182215
-0.00106481
0.018392
-0.000989682
0.0185495
-0.000909058
0.0186976
-0.00087047
0.0188317
-0.000786107
0.0189516
-0.000697131
0.0190569
-0.000604794
0.0191474
-0.000509049
0.0192246
-0.000416372
0.0192876
-0.000282117
0.0193348
-0.000173522
0.0193662
-0.000104963
0.0193815
-7.425e-05
-7.87025e-05
0.0193802
0.00660769
-0.00796312
-0.00586418
0.00735642
-0.00695993
0.00811698
-0.00587048
0.00886976
-0.00496595
0.00961673
-0.00431892
0.0103521
-0.00376744
0.0110523
-0.00330025
0.0117369
-0.00293852
0.012379
-0.00263303
0.0129806
-0.00241282
0.0135496
-0.00219554
0.0140769
-0.00204291
0.01456
-0.00198421
0.0150102
-0.00187381
0.0154281
-0.0017752
0.0158134
-0.00177086
0.0161719
-0.00175195
0.0165072
-0.00169492
0.016821
-0.00163799
0.0171165
-0.00162912
0.0173964
-0.00162288
0.0176605
-0.00156438
0.0179097
-0.00149985
0.0181445
-0.00142833
0.0183689
-0.00141905
0.0185797
-0.00134531
0.0187765
-0.00126166
0.0189593
-0.00117247
0.0191279
-0.00107761
0.0192851
-0.00102768
0.0194274
-0.000928435
0.0195545
-0.000824221
0.0196661
-0.000716401
0.019762
-0.000604943
0.0198437
-0.000498017
0.0199101
-0.000348509
0.01996
-0.000223435
0.0199932
-0.000138117
0.0200093
-9.03644e-05
-7.74985e-05
0.0200081
0.00651704
-0.00870677
-0.0057734
0.00726529
-0.00770818
0.00802364
-0.00662884
0.00877587
-0.00571818
0.00952441
-0.00506747
0.0102653
-0.00450833
0.0109782
-0.00401317
0.011681
-0.00364126
0.0123489
-0.00330092
0.0129824
-0.00304635
0.0135888
-0.00280197
0.0141577
-0.00261184
0.0146844
-0.00251085
0.0151798
-0.00236921
0.0156434
-0.00223886
0.0160723
-0.00219976
0.0164722
-0.00215179
0.0168467
-0.00206946
0.0171974
-0.0019887
0.0175262
-0.00195786
0.0178356
-0.00193225
0.0181267
-0.00185552
0.0184005
-0.00177361
0.0186575
-0.00168539
0.0189008
-0.00166237
0.0191287
-0.00157313
0.0193409
-0.00147388
0.0195375
-0.00136908
0.0197184
-0.00125852
0.0198861
-0.00119532
0.0200377
-0.00108003
0.0201729
-0.000959481
0.0202917
-0.000835127
0.0203937
-0.000706942
0.0204802
-0.000584576
0.0205505
-0.000418806
0.0206034
-0.000276339
0.0206386
-0.00017332
0.0206559
-0.000107587
-7.65106e-05
0.0206549
0.00646064
-0.0094571
-0.00571031
0.00721473
-0.00846227
0.00797712
-0.00739123
0.00873394
-0.00647501
0.00948772
-0.00582124
0.0102356
-0.00525624
0.0109603
-0.0047378
0.0116779
-0.00435886
0.0123663
-0.00398937
0.0130255
-0.00370555
0.0136621
-0.00343855
0.0142654
-0.00321514
0.0148291
-0.00307462
0.0153638
-0.00290388
0.0158682
-0.00274322
0.0163371
-0.00266865
0.0167757
-0.00259044
0.0171879
-0.00248167
0.0175747
-0.00237545
0.0179366
-0.00231978
0.0182761
-0.0022718
0.0185953
-0.00217464
0.0188948
-0.00207314
0.0191754
-0.00196601
0.0194392
-0.00192617
0.0196856
-0.00181952
0.0199147
-0.00170294
0.0201265
-0.0015809
0.0203211
-0.0014531
0.0205004
-0.0013746
0.0206623
-0.00124199
0.0208068
-0.00110389
0.0209335
-0.000961841
0.0210423
-0.000815805
0.0211345
-0.000676714
0.0212093
-0.000493582
0.0212657
-0.000332728
0.0213033
-0.000211004
0.0213221
-0.000126301
-7.60516e-05
0.0213216
0.00643121
-0.0102191
-0.00566922
0.00719605
-0.00922711
0.00796749
-0.00816267
0.00873342
-0.00724094
0.00949617
-0.006584
0.0102537
-0.00601374
0.0109909
-0.00547503
0.0117227
-0.00509062
0.0124293
-0.00469604
0.0131107
-0.00438686
0.0137727
-0.00410058
0.0144051
-0.00384755
0.0150009
-0.00367045
0.0155699
-0.00347282
0.0161102
-0.00328357
0.0166154
-0.00317381
0.01709
-0.00306503
0.0175376
-0.00292931
0.0179588
-0.00279666
0.0183532
-0.00271409
0.0187228
-0.00264142
0.0190701
-0.002522
0.019396
-0.00239898
0.0197009
-0.00227099
0.0199863
-0.00221149
0.0202524
-0.0020856
0.0204994
-0.00194997
0.0207275
-0.00180903
0.0209368
-0.00166242
0.0211288
-0.0015666
0.0213022
-0.00141529
0.0214566
-0.00125836
0.0215921
-0.00109736
0.0217086
-0.000932262
0.021807
-0.000775089
0.0218868
-0.000573416
0.0219472
-0.000393105
0.0219878
-0.000251604
0.0220084
-0.000146873
-7.6424e-05
0.0220088
0.00642371
-0.0109967
-0.00564613
0.00720325
-0.0100067
0.00798784
-0.00894727
0.0087667
-0.0080198
0.00954192
-0.00735922
0.0103119
-0.00678368
0.0110634
-0.00622662
0.0118101
-0.00583728
0.0125345
-0.00542042
0.0132363
-0.00508865
0.0139211
-0.0047854
0.0145792
-0.00450571
0.0152036
-0.00429479
0.015803
-0.00407222
0.0163755
-0.00385607
0.0169136
-0.00371194
0.0174214
-0.0035728
0.0179021
-0.00341006
0.0183559
-0.00325048
0.0187815
-0.0031396
0.0191805
-0.00304046
0.0195558
-0.00289732
0.019908
-0.00275116
0.0202376
-0.00260061
0.0205451
-0.00251894
0.0208315
-0.00237208
0.0210973
-0.00221575
0.0213426
-0.0020543
0.0215675
-0.00188729
0.021773
-0.00177216
0.0219585
-0.00160076
0.0221238
-0.00142364
0.0222688
-0.00124238
0.0223935
-0.00105695
0.0224987
-0.000880282
0.0225841
-0.000658826
0.0226489
-0.000457924
0.0226928
-0.000295516
0.0227156
-0.000169639
-7.78911e-05
0.0227171
0.00643457
-0.0117931
-0.00563817
0.00723209
-0.0108042
0.00803326
-0.00974844
0.00882835
-0.00881489
0.00961916
-0.00815003
0.0104043
-0.00756884
0.0111723
-0.00699464
0.0119353
-0.00660028
0.0126779
-0.00616302
0.0133998
-0.00581056
0.0141063
-0.00549183
0.0147883
-0.00518773
0.0154388
-0.00494532
0.016066
-0.00469941
0.0166678
-0.00445786
0.0172363
-0.00428043
0.0177749
-0.00411137
0.0182866
-0.00392176
0.0187711
-0.00373506
0.0192265
-0.00359494
0.0196541
-0.00346805
0.0200568
-0.00330001
0.020435
-0.00312938
0.0207892
-0.00295479
0.021119
-0.00284877
0.0214263
-0.00267935
0.0217113
-0.00250076
0.0219742
-0.00231723
0.0222152
-0.00212829
0.022435
-0.00199193
0.0226332
-0.001799
0.0228099
-0.00160032
0.022965
-0.00139746
0.0230984
-0.00119038
0.0232109
-0.000992774
0.0233024
-0.000750246
0.023372
-0.000527563
0.0234196
-0.000343064
0.0234448
-0.00019487
-8.06679e-05
0.0234476
0.00646121
-0.0126111
-0.0056432
0.00727951
-0.0116225
0.00810019
-0.0105691
0.00891439
-0.00962909
0.00972361
-0.00895925
0.0105266
-0.00837185
0.0113132
-0.00778123
0.0120943
-0.00738139
0.0128562
-0.00692494
0.0135987
-0.00655304
0.0143266
-0.0062197
0.0150316
-0.00589279
0.0157071
-0.00562077
0.0163604
-0.00535272
0.0169895
-0.00508698
0.0175864
-0.0048773
0.0181539
-0.00467888
0.0186948
-0.00446263
0.0192085
-0.00424877
0.0196924
-0.00407885
0.0201476
-0.00392325
0.020577
-0.00372938
0.0209807
-0.00353314
0.0213592
-0.00333325
0.0217114
-0.003201
0.0220396
-0.00300755
0.0223441
-0.00280524
0.022625
-0.00259816
0.0228826
-0.00238581
0.023117
-0.00222635
0.0233285
-0.0020105
0.023517
-0.00178886
0.0236826
-0.00156303
0.0238252
-0.00133295
0.0239453
-0.00111294
0.0240431
-0.000848014
0.0241179
-0.000602316
0.0241693
-0.000394496
0.0241972
-0.000222768
-8.49042e-05
0.0242014
0.00650169
-0.0134532
-0.00565964
0.00734327
-0.0124641
0.00818606
-0.0114119
0.00902193
-0.010465
0.00985207
-0.00978939
0.0106754
-0.00919514
0.0114826
-0.0085885
0.0122837
-0.00818251
0.0130664
-0.00770761
0.0138304
-0.00731703
0.0145801
-0.00696945
0.0153082
-0.00662082
0.016008
-0.00632064
0.0166866
-0.00603127
0.0173418
-0.00574219
0.0179657
-0.00550123
0.0185608
-0.00527397
0.0191295
-0.00503132
0.0196711
-0.00479032
0.0201825
-0.00459023
0.0206644
-0.00440521
0.0211198
-0.00418471
0.0215485
-0.00396191
0.0219509
-0.00373561
0.0223254
-0.00357552
0.0226746
-0.0033567
0.0229986
-0.00312929
0.0232977
-0.00289725
0.0235719
-0.00266005
0.0238213
-0.00247575
0.0240464
-0.00223555
0.0242471
-0.00198958
0.0244235
-0.00173939
0.0245755
-0.00148495
0.0247036
-0.00124107
0.024808
-0.000952386
0.0248881
-0.000682398
0.0249436
-0.000449988
0.0249743
-0.000253465
-9.06884e-05
0.0249801
0.00655461
-0.0143215
-0.00568627
0.00742171
-0.0133312
0.00828897
-0.0122792
0.00914881
-0.0113248
0.0100022
-0.0106428
0.010848
-0.010041
0.011678
-0.0094185
0.0125011
-0.00900554
0.013306
-0.00851258
0.0140927
-0.00810373
0.0148652
-0.00774193
0.0156167
-0.00737225
0.016341
-0.00704499
0.0170445
-0.00673477
0.0177252
-0.00642292
0.0183755
-0.00615148
0.0189973
-0.00589578
0.0195929
-0.00562688
0.0201613
-0.00535874
0.0206993
-0.00512821
0.0212073
-0.00491323
0.021688
-0.00466541
0.0221413
-0.0044152
0.0225672
-0.0041615
0.0229638
-0.00397215
0.0233338
-0.00372671
0.0236774
-0.0034729
0.0239947
-0.00321456
0.0242858
-0.00295114
0.0245504
-0.00274034
0.0247892
-0.0024744
0.0250024
-0.0022027
0.0251898
-0.00192678
0.0253514
-0.0016466
0.0254877
-0.00137737
0.0255989
-0.00106354
0.0256844
-0.00076795
0.0257441
-0.000509645
0.0257776
-0.000287028
-9.80453e-05
0.025785
0.00661886
-0.0152182
-0.00572216
0.00751359
-0.0142259
0.00840748
-0.0131731
0.00929347
-0.0122108
0.0101723
-0.0115216
0.0110428
-0.0109115
0.0118975
-0.0102732
0.0127443
-0.00985238
0.0135732
-0.00934151
0.014384
-0.00891451
0.0151803
-0.00853826
0.015956
-0.00814788
0.0167053
-0.00779428
0.0174339
-0.0074634
0.01814
-0.00712906
0.0188163
-0.00682772
0.0194644
-0.00654387
0.0200862
-0.00624874
0.0206809
-0.00595338
0.0212449
-0.00569221
0.0217784
-0.00544678
0.022284
-0.00517099
0.0227614
-0.00489259
0.0232105
-0.00461059
0.023629
-0.00439073
0.0240198
-0.00411748
0.024383
-0.00383605
0.0247185
-0.00355011
0.0250265
-0.00325913
0.0253064
-0.00302026
0.0255592
-0.00272719
0.0257849
-0.00242838
0.0259835
-0.00212534
0.0261549
-0.00181803
0.0262995
-0.00152196
0.0264175
-0.00118159
0.0265086
-0.000859052
0.0265725
-0.00057351
0.0266089
-0.000323463
-0.000106943
0.0266178
0.00669363
-0.0161452
-0.0057666
0.00761799
-0.0151503
0.00854056
-0.0140956
0.00945473
-0.013125
0.010361
-0.0124278
0.0112582
-0.0118087
0.0121395
-0.0111544
0.013012
-0.0107249
0.0138665
-0.0101961
0.0147028
-0.00975083
0.0155243
-0.00935972
0.0163251
-0.00894873
0.0171001
-0.00856923
0.0178543
-0.00821765
0.0185862
-0.00786087
0.0192885
-0.00753002
0.0199627
-0.00721814
0.0206107
-0.00689668
0.0212312
-0.00657394
0.0218209
-0.00628187
0.0223796
-0.00600554
0.0229098
-0.00570115
0.023411
-0.0053938
0.023883
-0.00508262
0.0243234
-0.00483112
0.0247349
-0.00452894
0.0251175
-0.00421869
0.0254713
-0.00390389
0.0257963
-0.00358406
0.0260916
-0.00331559
0.0263584
-0.00299403
0.0265968
-0.00266672
0.0268066
-0.00233517
0.0269879
-0.00199933
0.0271409
-0.00167494
0.0272659
-0.00130659
0.0273625
-0.000955728
0.0274306
-0.000641574
0.0274699
-0.000362726
-0.0001173
0.0274802
0.00677831
-0.0171045
-0.00581905
0.00773422
-0.0161062
0.00868745
-0.0150489
0.00963175
-0.0140693
0.0105674
-0.0133635
0.0114933
-0.0127346
0.012403
-0.0120641
0.013303
-0.0116249
0.0141848
-0.0110779
0.0150482
-0.0106142
0.0158962
-0.0102077
0.0167234
-0.00977596
0.017525
-0.00937078
0.0183056
-0.00899826
0.0190636
-0.00861888
0.0197923
-0.00825873
0.0204929
-0.00791878
0.021167
-0.00757076
0.0218134
-0.00722035
0.0224287
-0.00689711
0.0230125
-0.00658939
0.0235671
-0.00625574
0.024092
-0.00591868
0.0245869
-0.00557746
0.025049
-0.00529327
0.0254811
-0.00496106
0.0258832
-0.00462082
0.0262553
-0.00427593
0.0265972
-0.00392594
0.026908
-0.00362642
0.027189
-0.003275
0.02744
-0.0029178
0.0276612
-0.00255632
0.0278524
-0.00219054
0.0280138
-0.00183634
0.0281458
-0.00143855
0.028248
-0.00105796
0.0283202
-0.000713786
0.0283622
-0.00040473
-0.000128991
0.0283739
0.00687244
-0.0180979
-0.00587906
0.00786178
-0.0170955
0.00884758
-0.0160347
0.00982393
-0.0150456
0.0107909
-0.0143304
0.0117473
-0.0136911
0.0126873
-0.0130041
0.0136166
-0.0125542
0.0145274
-0.0119887
0.0154194
-0.0115062
0.0162953
-0.0110836
0.0171502
-0.0106309
0.0179795
-0.0102
0.0187874
-0.00980616
0.0195723
-0.00940385
0.020328
-0.00901441
0.0210555
-0.00864622
0.021756
-0.00827129
0.0224285
-0.00789281
0.0230694
-0.00753802
0.0236784
-0.00719841
0.0242574
-0.0068348
0.024806
-0.00646724
0.0253236
-0.00609509
0.0258076
-0.0057772
0.0262604
-0.00541386
0.026682
-0.00504246
0.0270723
-0.00466625
0.0274312
-0.00428483
0.0277576
-0.00395282
0.0280528
-0.00357016
0.0283166
-0.00318168
0.0285492
-0.00278885
0.0287503
-0.00239169
0.0289201
-0.00200616
0.0290591
-0.00157747
0.0291668
-0.0011657
0.0292431
-0.000790063
0.0292877
-0.000449354
-0.000141857
0.0293006
0.00697567
-0.0191272
-0.00594633
0.00800032
-0.0181202
0.00902058
-0.0170549
0.0100308
-0.0160559
0.011031
-0.0153306
0.0120199
-0.0146799
0.0129919
-0.0139761
0.0139522
-0.0135145
0.0148937
-0.0129302
0.0158159
-0.0124285
0.0167213
-0.011989
0.0176053
-0.0115148
0.0184634
-0.0110582
0.0192997
-0.0106424
0.0201125
-0.0102167
0.0208959
-0.00979783
0.0216508
-0.00940108
0.0223782
-0.00899873
0.0230771
-0.00859169
0.023744
-0.00820489
0.0243784
-0.00783281
0.0249821
-0.00743849
0.0255544
-0.0070396
0.026095
-0.00663562
0.0266008
-0.00628303
0.0270744
-0.00588744
0.0275156
-0.0054837
0.0279243
-0.00507494
0.0283003
-0.00466079
0.0286423
-0.00429489
0.0289518
-0.00387959
0.0292285
-0.00345841
0.0294725
-0.0030328
0.0296836
-0.00260279
0.0298618
-0.00218442
0.0300077
-0.00172332
0.0301209
-0.00127889
0.0302011
-0.000870298
0.0302482
-0.000496451
-0.000155708
0.030262
0.00708778
-0.0201944
-0.0060206
0.00814959
-0.019182
0.00920619
-0.0181115
0.0102522
-0.0171019
0.0112874
-0.0163658
0.0123106
-0.0157031
0.0133164
-0.014982
0.0143097
-0.0145078
0.0152835
-0.0139041
0.0162376
-0.0133825
0.017174
-0.0129254
0.0180884
-0.0124292
0.0189767
-0.0119465
0.0198425
-0.0115082
0.0206842
-0.0110584
0.0214963
-0.0106099
0.0222793
-0.0101841
0.0230344
-0.00975376
0.0237602
-0.00931754
0.0244535
-0.00889819
0.0251137
-0.00849299
0.0257423
-0.00806712
0.0263387
-0.00763602
0.0269024
-0.00719925
0.0274303
-0.00681096
0.0279249
-0.00638199
0.0283859
-0.00594471
0.0288131
-0.00550213
0.0292062
-0.00505394
0.0295641
-0.00465274
0.0298879
-0.0042034
0.0301775
-0.00374807
0.0304329
-0.0032882
0.030654
-0.00282387
0.0308407
-0.00237111
0.0309934
-0.00187605
0.031112
-0.00139743
0.0311961
-0.000954367
0.0312455
-0.000545854
-0.00017033
0.0312601
0.00720859
-0.0213013
-0.00610171
0.00830945
-0.0202828
0.00940429
-0.0192064
0.010488
-0.0181856
0.0115601
-0.0174379
0.0126194
-0.0167624
0.0136609
-0.0160234
0.0146887
-0.0155356
0.0156967
-0.0149121
0.0166842
-0.01437
0.0176532
-0.0138944
0.0185996
-0.0133756
0.0195195
-0.0128664
0.020416
-0.0124048
0.0212879
-0.0119303
0.0221296
-0.0114516
0.0229417
-0.0109963
0.0237251
-0.0105372
0.0244786
-0.010071
0.0251989
-0.00961849
0.0258854
-0.00917946
0.0265394
-0.00872115
0.0271603
-0.00825687
0.0277473
-0.00778631
0.0282976
-0.00736129
0.0288134
-0.00689776
0.0292944
-0.00642571
0.0297403
-0.00594802
0.0301508
-0.00546445
0.0305246
-0.00502654
0.0308629
-0.00454171
0.0311656
-0.00405076
0.0314325
-0.00355513
0.0316636
-0.00305494
0.0318587
-0.00256621
0.0320183
-0.00203562
0.0321421
-0.00152125
0.0322299
-0.00104214
0.0322814
-0.000597376
-0.000185487
0.0322966
0.00733803
-0.0224498
-0.00618953
0.00847983
-0.0214246
0.00961481
-0.0203414
0.0107381
-0.0193089
0.011849
-0.0185488
0.0129463
-0.0178596
0.0140252
-0.0171024
0.0150895
-0.0165999
0.0161333
-0.0159559
0.017156
-0.0153927
0.0181592
-0.0148976
0.0191391
-0.0143555
0.0200919
-0.0138193
0.0210206
-0.0133335
0.0219238
-0.0128334
0.0227963
-0.0123241
0.0236385
-0.0118385
0.0244512
-0.0113498
0.0252331
-0.010853
0.0259812
-0.0103665
0.0266945
-0.00989284
0.0273745
-0.00940113
0.0280203
-0.00890266
0.0286312
-0.00839722
0.0292043
-0.00793441
0.0297417
-0.0074351
0.0302429
-0.006927
0.0307078
-0.00641286
0.0311359
-0.00589254
0.0315258
-0.00541647
0.0318788
-0.00489468
0.0321946
-0.00436659
0.0324731
-0.00383366
0.0327142
-0.00329604
0.0329178
-0.00276974
0.0330841
-0.00220199
0.0332131
-0.00165025
0.0333045
-0.00113346
0.0333579
-0.000650821
-0.000200926
0.0333734
0.00747605
-0.0236418
-0.006284
0.00866073
-0.0226093
0.0098378
-0.0215184
0.0110025
-0.0204736
0.0121542
-0.0197004
0.0132913
-0.0189968
0.0144096
-0.0182206
0.0155122
-0.0177025
0.0165936
-0.0170373
0.0176531
-0.0164522
0.0186922
-0.0159366
0.0197071
-0.0153705
0.0206945
-0.0148066
0.0216567
-0.0142957
0.0225925
-0.0137692
0.023497
-0.0132285
0.0243704
-0.0127119
0.0252134
-0.0121928
0.0260247
-0.0116643
0.0268013
-0.0111431
0.0275423
-0.0106339
0.0282489
-0.0101077
0.0289202
-0.00957396
0.0295555
-0.0090325
0.0301519
-0.00853078
0.0307112
-0.00799442
0.0312331
-0.00744893
0.0317172
-0.00689698
0.0321632
-0.00633848
0.0325695
-0.00582279
0.0329373
-0.0052625
0.0332664
-0.00469571
0.0335567
-0.00412389
0.0338079
-0.00354723
0.0340198
-0.0029817
0.034193
-0.00237512
0.034327
-0.00178433
0.0344218
-0.00122819
0.0344769
-0.000705984
-0.000216381
0.0344924
0.00762268
-0.0248794
-0.00638509
0.00885222
-0.0238389
0.0100734
-0.0227396
0.0112815
-0.0216818
0.0124758
-0.0208947
0.0136547
-0.0201758
0.0148142
-0.0193801
0.0159569
-0.0188453
0.0170777
-0.0181581
0.0181759
-0.0175504
0.0192525
-0.0170133
0.0203042
-0.0164221
0.0213276
-0.0158299
0.0223248
-0.015293
0.0232946
-0.014739
0.0242324
-0.0141663
0.0251382
-0.0136178
0.0260126
-0.0130672
0.0268543
-0.012506
0.0276604
-0.0119491
0.0284299
-0.0114034
0.0291638
-0.0108416
0.0298613
-0.0102714
0.0305216
-0.00969277
0.0311418
-0.00915096
0.0317236
-0.00857621
0.0322666
-0.00799195
0.0327704
-0.00740075
0.0332345
-0.00680259
0.0336575
-0.00624577
0.0340404
-0.00564541
0.034383
-0.00503831
0.0346851
-0.00442596
0.0349464
-0.00380859
0.0351668
-0.00320212
0.0353467
-0.00255499
0.0354858
-0.00192342
0.0355838
-0.00132618
0.0356405
-0.000762656
-0.000231577
0.0356557
0.00777797
-0.0261646
-0.0064928
0.00905439
-0.0251153
0.0103216
-0.0240068
0.0115752
-0.0229354
0.0128141
-0.0221336
0.0140368
-0.0213985
0.0152394
-0.0205826
0.0164241
-0.0200301
0.0175862
-0.0193202
0.0187248
-0.0186889
0.0198408
-0.0181293
0.0209309
-0.0175122
0.0219918
-0.0168909
0.0230256
-0.0163268
0.0240309
-0.0157443
0.0250033
-0.0151387
0.0259429
-0.0145573
0.0268498
-0.0139742
0.027723
-0.0133792
0.0285596
-0.0127857
0.0293585
-0.0122023
0.0301207
-0.0116038
0.0308451
-0.0109959
0.0315311
-0.0103787
0.0321757
-0.00979557
0.0327805
-0.00918104
0.0333451
-0.00855656
0.033869
-0.00792462
0.0343517
-0.00728525
0.0347917
-0.00668576
0.0351899
-0.00604368
0.0355462
-0.00539461
0.0358603
-0.00474003
0.0361319
-0.00408022
0.0363609
-0.00343106
0.0365475
-0.00274158
0.0366915
-0.00206744
0.0367926
-0.00142729
0.0368506
-0.000820631
-0.000246234
0.0368652
0.00794202
-0.0274994
-0.00660718
0.00926741
-0.0264407
0.0105828
-0.0253222
0.0118839
-0.0242365
0.0131694
-0.0234191
0.014438
-0.022667
0.0156856
-0.0218302
0.0169143
-0.0212588
0.0181196
-0.0205255
0.0193004
-0.0198697
0.0204575
-0.0192864
0.0215877
-0.0186425
0.022688
-0.0179911
0.0237599
-0.0173988
0.0248023
-0.0167866
0.0258107
-0.0161471
0.0267853
-0.0155318
0.0277261
-0.014915
0.028632
-0.0142851
0.0295001
-0.0136538
0.0303295
-0.0130317
0.0311208
-0.0123951
0.0318731
-0.0117482
0.0325855
-0.0110911
0.0332552
-0.0104653
0.0338837
-0.00980953
0.0344705
-0.00914332
0.0350149
-0.00846908
0.0355166
-0.00778691
0.0359739
-0.00714312
0.0363879
-0.00645764
0.0367582
-0.00576486
0.0370844
-0.00506629
0.0373665
-0.00436226
0.037604
-0.00366858
0.0377973
-0.00293491
0.0379462
-0.00221633
0.0380503
-0.0015314
0.0381094
-0.000879706
-0.000260072
0.0381232
0.00811496
-0.0288861
-0.0067283
0.00949147
-0.0278172
0.0108572
-0.0266879
0.0122078
-0.0255871
0.0135421
-0.0247535
0.0148585
-0.0239834
0.0161532
-0.0231249
0.017428
-0.0225336
0.0186783
-0.0217758
0.0199033
-0.0210946
0.0211034
-0.0204865
0.0222756
-0.0198147
0.0234168
-0.0191324
0.0245286
-0.0185106
0.0256095
-0.0178675
0.0266556
-0.0171932
0.0276666
-0.0165428
0.0286426
-0.015891
0.0295824
-0.0152249
0.0304833
-0.0145546
0.0313442
-0.0138926
0.0321656
-0.0132165
0.0329466
-0.0125292
0.0336863
-0.0118308
0.034382
-0.011161
0.0350348
-0.0104624
0.0356444
-0.00975287
0.03621
-0.00903469
0.0367311
-0.00830805
0.0372063
-0.00761829
0.0376363
-0.00688765
0.0380208
-0.00614937
0.0383595
-0.00540498
0.0386521
-0.00465486
0.0388983
-0.00391479
0.0390984
-0.00313501
0.0392522
-0.00237005
0.0393592
-0.00163839
0.0394191
-0.000939688
-0.000272813
0.0394319
0.00829697
-0.0303268
-0.00685624
0.0097268
-0.029247
0.011145
-0.0281061
0.0125474
-0.0269896
0.0139327
-0.0261387
0.015299
-0.0253497
0.0166429
-0.0244687
0.0179657
-0.0238564
0.0192631
-0.0230733
0.0205342
-0.0223657
0.0217792
-0.0217315
0.0229952
-0.0210307
0.0241792
-0.0203164
0.0253325
-0.0196639
0.0264537
-0.0189887
0.0275389
-0.0182784
0.0285879
-0.0175918
0.0296005
-0.0169037
0.0305756
-0.0162
0.0315105
-0.0154895
0.032404
-0.0147861
0.0332567
-0.0140692
0.0340674
-0.0133399
0.0348353
-0.0125987
0.0355578
-0.0118834
0.0362358
-0.0111404
0.0368688
-0.0103859
0.0374562
-0.00962208
0.0379973
-0.00884923
0.0384908
-0.00811175
0.0389373
-0.00733412
0.0393364
-0.00654847
0.0396877
-0.00575636
0.0399911
-0.00495824
0.0402461
-0.00416981
0.0404531
-0.00334193
0.0406116
-0.00252858
0.0407214
-0.00174817
0.0407821
-0.00100039
-0.000284191
0.0407935
0.00848822
-0.0318239
-0.00699114
0.00997367
-0.0307324
0.0114466
-0.029579
0.0129031
-0.0284461
0.0143414
-0.027577
0.01576
-0.0267683
0.0171551
-0.0258639
0.0185281
-0.0252293
0.0198748
-0.02442
0.0211939
-0.0236848
0.0224858
-0.0230234
0.0237475
-0.0222924
0.0249762
-0.0215451
0.0261728
-0.0208605
0.027336
-0.0201519
0.028462
-0.0194044
0.0295505
-0.0186802
0.0306012
-0.0179545
0.031613
-0.0172118
0.0325832
-0.0164596
0.0335106
-0.0157136
0.0343956
-0.0149542
0.0352372
-0.0141815
0.0360343
-0.0133959
0.0367844
-0.0126334
0.0374883
-0.0118444
0.0381456
-0.0110431
0.0387554
-0.0102319
0.0393172
-0.00941104
0.0398295
-0.00862402
0.0402929
-0.0077975
0.0407069
-0.00696254
0.0410713
-0.00612075
0.0413857
-0.00527261
0.0416497
-0.00443381
0.0418635
-0.00355575
0.0420269
-0.00269193
0.0421394
-0.00186064
0.0422006
-0.00106167
-0.00029395
0.0422104
0.00868896
-0.0333797
-0.00713314
0.0102324
-0.0322759
0.0117625
-0.0311091
0.0132753
-0.0299589
0.014769
-0.0290708
0.016242
-0.0282412
0.0176907
-0.0273126
0.019116
-0.0266546
0.020514
-0.0258179
0.0218833
-0.0250542
0.0232242
-0.0243642
0.0245336
-0.0236019
0.0258088
-0.0228203
0.0270506
-0.0221023
0.0282575
-0.0213589
0.029426
-0.0205729
0.0305556
-0.0198098
0.0316461
-0.0190449
0.032696
-0.0182617
0.0337028
-0.0174665
0.0346655
-0.0166763
0.0355841
-0.0158728
0.0364576
-0.015055
0.037285
-0.0142232
0.0380637
-0.0134121
0.0387945
-0.0125752
0.0394768
-0.0117254
0.0401098
-0.0108649
0.0406929
-0.00999413
0.0412246
-0.0091557
0.0417054
-0.00827829
0.0421348
-0.00739202
0.0425126
-0.00649849
0.0428382
-0.00559826
0.0431114
-0.00470697
0.0433322
-0.0037766
0.0435004
-0.00286012
0.0436156
-0.00197576
0.0436773
-0.00112336
-0.000301866
0.0436852
0.00889944
-0.0349968
-0.00728241
0.0105033
-0.0338797
0.0120929
-0.0326987
0.0136645
-0.0315304
0.015216
-0.0306223
0.0167457
-0.0297709
0.0182503
-0.0288171
0.0197302
-0.0281346
0.0211817
-0.0272694
0.0226034
-0.0264759
0.0239952
-0.0257561
0.0253544
-0.024961
0.0266781
-0.024144
0.027967
-0.0233912
0.0292196
-0.0226114
0.0304324
-0.0217857
0.0316048
-0.0209823
0.0327366
-0.0201766
0.0338262
-0.0193514
0.0348712
-0.0185115
0.0358704
-0.0176755
0.0368239
-0.0168263
0.0377306
-0.0159616
0.0385893
-0.015082
0.0393977
-0.0142205
0.0401563
-0.0133338
0.0408645
-0.0124336
0.0415215
-0.0115219
0.0421266
-0.0105992
0.0426783
-0.00970739
0.0431771
-0.00877706
0.0436224
-0.00783736
0.0440139
-0.00688997
0.0443511
-0.00593548
0.0446337
-0.00498953
0.0448617
-0.00400461
0.0450348
-0.00303323