/*--------------------------------*- C++ -*----------------------------------*\
| =========                 |                                                 |
| \\      /  F ield         | OpenFOAM: The Open Source CFD Toolbox           |
|  \\    /   O peration     | Version:  3.0.1                                 |
|   \\  /    A nd           | Web:      www.OpenFOAM.org                      |
|    \\/     M anipulation  |                                                 |
\*---------------------------------------------------------------------------*/
FoamFile
{
    version     2.0;
    format      ascii;
    class       volVectorField;
    location    "350";
    object      U;
}
// * * * * * * * * * * * * * * * * * * * * * * * * * * * * * * * * * * * * * //

dimensions      [0 1 -1 0 0 0 0];

internalField   nonuniform List<vector> 
58000
(
(0.308528 1.14216 1.53533e-21)
(0.450166 1.27063 -1.56263e-20)
(0.597484 1.31436 1.85384e-20)
(0.724278 1.27704 -2.87777e-20)
(0.824553 1.19565 -5.73675e-20)
(0.90339 1.09477 0)
(0.965677 0.993048 -3.27811e-20)
(1.01296 0.893908 -6.29263e-22)
(1.05134 0.802326 3.71869e-20)
(1.08224 0.723767 0)
(1.10722 0.655386 4.02123e-20)
(1.12851 0.596325 3.80201e-20)
(1.14791 0.548594 -1.21719e-19)
(1.16209 0.508906 4.25395e-20)
(1.17244 0.474819 3.79034e-20)
(1.18046 0.446081 7.62195e-20)
(1.18616 0.42189 -1.11827e-19)
(1.19017 0.400643 0)
(1.19297 0.38106 7.07732e-20)
(1.19486 0.36276 -1.05009e-19)
(1.19591 0.346016 8.50634e-22)
(1.19604 0.330407 3.41813e-20)
(1.19572 0.315418 1.61803e-20)
(1.19448 0.300504 0)
(1.19304 0.286251 3.06257e-20)
(1.19072 0.272824 -1.51305e-20)
(1.18803 0.259873 0)
(1.18506 0.247217 3.05161e-22)
(1.18139 0.234592 0)
(1.17766 0.222501 -1.40157e-20)
(1.17335 0.211075 6.84434e-20)
(1.16886 0.199992 -6.79589e-20)
(1.16419 0.189127 -3.99523e-20)
(1.15916 0.178344 1.04802e-19)
(1.15386 0.167773 -2.60096e-20)
(1.14615 0.157315 -1.27894e-20)
(1.13501 0.147329 1.9028e-20)
(1.12357 0.138574 -1.22209e-20)
(1.1135 0.131104 1.82328e-20)
(1.11244 0.126214 0)
(0.546079 0.747708 -7.72247e-21)
(0.656712 0.823943 0)
(0.770051 0.881438 2.69886e-23)
(0.880556 0.93334 -2.74069e-23)
(0.983936 0.96601 3.46745e-20)
(1.07756 0.975388 2.79593e-20)
(1.15712 0.965 -5.35705e-20)
(1.22409 0.938735 1.53879e-20)
(1.2785 0.899873 7.34569e-20)
(1.31931 0.854797 -4.00864e-20)
(1.34948 0.80525 0)
(1.37009 0.753523 -7.31102e-20)
(1.38177 0.70455 4.87153e-20)
(1.38808 0.6591 2.6261e-20)
(1.39053 0.615543 -2.62483e-20)
(1.39029 0.575791 0)
(1.38838 0.540614 2.58786e-20)
(1.38539 0.508377 0)
(1.38164 0.478105 9.82553e-20)
(1.3775 0.450238 -1.47055e-19)
(1.37326 0.425241 0)
(1.36887 0.402117 1.18819e-19)
(1.36429 0.380048 -9.43466e-20)
(1.35943 0.358768 0)
(1.3546 0.339109 -3.39674e-20)
(1.34975 0.321019 0)
(1.34471 0.303612 0)
(1.33947 0.286711 3.251e-20)
(1.33392 0.270214 0)
(1.32836 0.254745 -3.15877e-20)
(1.32279 0.240294 4.18017e-20)
(1.31703 0.226244 -4.076e-20)
(1.31106 0.212474 3.03614e-20)
(1.30482 0.198928 -2.00628e-20)
(1.29832 0.185834 0)
(1.29154 0.173377 -2.93492e-20)
(1.28459 0.162041 1.93501e-20)
(1.27774 0.15213 0)
(1.27149 0.143132 -4.76427e-21)
(1.26664 0.135417 9.32736e-21)
(0.568896 0.678998 2.29174e-21)
(0.62076 0.741163 -8.25778e-22)
(0.685281 0.79373 3.73488e-22)
(0.758635 0.834337 9.12836e-22)
(0.835839 0.862475 -9.5421e-22)
(0.915561 0.878985 -1.52676e-20)
(0.991325 0.883538 1.94654e-20)
(1.06362 0.87662 0)
(1.12951 0.859539 -2.67318e-20)
(1.18556 0.834204 2.44817e-20)
(1.234 0.801927 3.04622e-20)
(1.27432 0.764906 -1.7029e-21)
(1.30508 0.726483 0)
(1.32881 0.687538 6.80449e-20)
(1.34718 0.648246 -3.55773e-20)
(1.36024 0.610987 0)
(1.36895 0.576722 0)
(1.3747 0.544505 0)
(1.37822 0.513917 -1.77065e-20)
(1.37993 0.485565 1.88236e-20)
(1.38024 0.459787 0)
(1.37955 0.435723 1.74962e-20)
(1.37809 0.412771 0)
(1.37597 0.390795 0)
(1.37335 0.370461 3.49935e-20)
(1.37034 0.351554 -6.88913e-20)
(1.36693 0.333332 6.89124e-20)
(1.36318 0.315726 1.64751e-20)
(1.35908 0.298677 -3.37147e-20)
(1.35478 0.28267 -2.46578e-20)
(1.35029 0.267581 0)
(1.34553 0.252901 1.58522e-20)
(1.34051 0.238602 0)
(1.33523 0.224672 3.00299e-22)
(1.32973 0.211326 -2.32896e-20)
(1.32396 0.198609 1.56558e-20)
(1.31787 0.186497 0)
(1.31172 0.175085 0)
(1.30579 0.164166 -3.74341e-21)
(1.30046 0.15337 -3.9399e-21)
(0.644596 0.609548 3.48686e-21)
(0.680192 0.65526 8.47003e-22)
(0.721404 0.698262 -1.26449e-21)
(0.769102 0.735784 -2.51002e-24)
(0.822215 0.765192 2.96329e-21)
(0.879956 0.785999 0)
(0.938529 0.797273 -7.87675e-21)
(0.997118 0.799794 0)
(1.05409 0.794058 -1.5531e-20)
(1.10606 0.780988 -3.25326e-21)
(1.15387 0.761506 -2.00629e-20)
(1.1967 0.736776 1.91453e-20)
(1.2324 0.709034 -2.45308e-20)
(1.26212 0.679099 -4.99461e-20)
(1.28717 0.647297 -2.64264e-20)
(1.30695 0.615578 2.71803e-20)
(1.32193 0.585045 -2.56917e-20)
(1.33348 0.555335 0)
(1.34235 0.52638 -1.21988e-20)
(1.34876 0.498938 -5.54591e-20)
(1.35308 0.473503 5.56405e-20)
(1.35589 0.449457 -1.43191e-20)
(1.35755 0.426336 0)
(1.35822 0.404073 0)
(1.358 0.383329 4.0553e-20)
(1.35708 0.363944 -5.45986e-20)
(1.35556 0.345239 5.3807e-20)
(1.35352 0.327142 -5.06575e-22)
(1.35099 0.309597 -1.06331e-19)
(1.34808 0.29307 6.65293e-20)
(1.34486 0.277465 -2.59474e-20)
(1.34128 0.2623 -1.29754e-20)
(1.33738 0.247546 5.13425e-20)
(1.33314 0.233186 -1.9059e-20)
(1.32864 0.219426 6.45036e-21)
(1.32394 0.206318 -6.12708e-21)
(1.31901 0.193706 -6.07966e-21)
(1.31392 0.181576 0)
(1.3088 0.169871 3.01992e-21)
(1.3039 0.15858 -3.14532e-21)
(0.686922 0.565864 -1.5785e-21)
(0.712482 0.601893 -2.35421e-21)
(0.741988 0.637358 9.9701e-23)
(0.776452 0.670493 -2.63418e-23)
(0.815967 0.698942 -1.0712e-21)
(0.860485 0.721761 0)
(0.9075 0.737193 3.26958e-21)
(0.956297 0.74543 3.09466e-21)
(1.00549 0.74661 0)
(1.05219 0.740911 9.89953e-21)
(1.09685 0.729136 1.16526e-20)
(1.13853 0.712131 0)
(1.17494 0.691341 -1.74272e-20)
(1.20671 0.667558 1.86222e-20)
(1.2348 0.641251 0)
(1.2582 0.614013 -3.69922e-20)
(1.27701 0.586885 1.012e-19)
(1.29239 0.559794 5.67349e-22)
(1.305 0.532846 -1.9875e-20)
(1.31487 0.506835 0)
(1.32226 0.48232 0)
(1.32782 0.458869 0)
(1.33196 0.436144 2.11069e-20)
(1.33488 0.414146 0)
(1.33662 0.393523 0)
(1.3374 0.374142 0)
(1.33743 0.355396 3.25847e-20)
(1.3368 0.337232 -4.33253e-20)
(1.33557 0.319616 5.31168e-20)
(1.33382 0.302988 -3.24281e-20)
(1.33162 0.287246 0)
(1.329 0.271944 0)
(1.32598 0.25706 -1.05758e-20)
(1.3226 0.242584 3.13308e-20)
(1.31891 0.22871 -2.26636e-22)
(1.31499 0.215471 -2.55169e-20)
(1.31082 0.202663 1.54073e-20)
(1.30643 0.190232 0)
(1.30185 0.178173 0)
(1.29716 0.166529 -5.06185e-21)
(0.724009 0.531503 0)
(0.743797 0.560408 1.68078e-21)
(0.765943 0.589514 1.89022e-21)
(0.791606 0.617827 -2.68797e-22)
(0.821419 0.643631 -1.16418e-21)
(0.855845 0.666139 2.12499e-21)
(0.893464 0.683377 1.79786e-21)
(0.933736 0.695177 6.86336e-21)
(0.97569 0.7012 1.20397e-21)
(1.01687 0.701065 -1.47782e-20)
(1.05743 0.695396 -4.50387e-22)
(1.09648 0.68469 -3.04976e-20)
(1.13178 0.669813 4.51922e-20)
(1.16361 0.651499 -2.40136e-20)
(1.19265 0.63025 2.75693e-20)
(1.21774 0.607319 -2.63937e-20)
(1.23868 0.583657 0)
(1.25646 0.559387 0)
(1.27156 0.534716 0)
(1.2839 0.510424 0)
(1.2936 0.487116 -1.76284e-20)
(1.30129 0.464527 -1.66357e-20)
(1.30742 0.442429 5.12555e-20)
(1.31217 0.420875 -3.47522e-20)
(1.31553 0.400506 0)
(1.31773 0.38124 1.69729e-20)
(1.31907 0.362543 -2.58999e-20)
(1.31963 0.344381 3.51207e-20)
(1.31949 0.326734 -6.06901e-20)
(1.3187 0.310022 1.75172e-20)
(1.31735 0.29416 -3.44366e-20)
(1.31553 0.278731 3.46176e-20)
(1.31325 0.263717 -4.12579e-22)
(1.31055 0.249107 8.74007e-21)
(1.3075 0.235082 0)
(1.30417 0.221672 0)
(1.30056 0.208672 -8.34808e-21)
(1.29667 0.196018 8.39246e-21)
(1.29253 0.183734 0)
(1.28818 0.171895 -4.0138e-21)
(0.752748 0.504234 8.46106e-22)
(0.76899 0.528075 -1.02199e-21)
(0.786767 0.552311 -2.71977e-22)
(0.807007 0.576357 2.43829e-22)
(0.830424 0.599035 -6.31094e-22)
(0.857669 0.619861 -2.11117e-21)
(0.888037 0.637066 -2.26912e-21)
(0.921266 0.650379 -8.90606e-22)
(0.956786 0.65924 0)
(0.992636 0.662889 0)
(1.02886 0.661745 5.46265e-21)
(1.06466 0.656007 0)
(1.09799 0.646043 0)
(1.12885 0.63247 -1.88843e-20)
(1.15774 0.615779 9.91323e-21)
(1.18341 0.596898 -2.08109e-20)
(1.20548 0.576657 1.16245e-20)
(1.22473 0.555303 0)
(1.24153 0.533102 1.20346e-20)
(1.25565 0.510786 1.38068e-20)
(1.26712 0.488972 -2.76879e-20)
(1.27653 0.467531 4.15825e-20)
(1.28429 0.446335 1.71529e-22)
(1.29057 0.425479 -2.79809e-20)
(1.29531 0.405594 1.46321e-20)
(1.29876 0.386646 -2.85184e-20)
(1.30123 0.368181 -2.86347e-20)
(1.30284 0.350183 -1.39624e-20)
(1.30366 0.332648 1.47498e-20)
(1.30372 0.315985 -3.52372e-20)
(1.30314 0.30012 5.71787e-20)
(1.30201 0.28467 -2.22893e-22)
(1.30038 0.269621 -5.70773e-20)
(1.29828 0.254966 7.32543e-21)
(1.29577 0.240876 0)
(1.29293 0.227379 2.0887e-20)
(1.28976 0.214276 -7.24257e-21)
(1.28628 0.201505 0)
(1.28249 0.189099 3.44366e-21)
(1.27842 0.17714 3.74858e-21)
(0.776475 0.481665 -9.05966e-22)
(0.790261 0.501732 2.834e-22)
(0.805098 0.522214 2.01614e-22)
(0.821722 0.542744 4.40908e-24)
(0.840781 0.562486 1.39531e-22)
(0.86292 0.581188 1.71563e-21)
(0.887829 0.597392 -1.05361e-21)
(0.915433 0.610863 2.18536e-21)
(0.945478 0.621018 -2.28149e-21)
(0.976471 0.62693 0)
(1.00845 0.628866 3.0948e-21)
(1.04075 0.626808 -1.09417e-20)
(1.07158 0.62074 5.73352e-21)
(1.1008 0.61114 -2.04878e-20)
(1.12874 0.598436 2.40563e-20)
(1.15419 0.583255 -2.41806e-20)
(1.17661 0.566284 2.67749e-20)
(1.19661 0.547836 0)
(1.21445 0.528197 -1.04625e-20)
(1.22981 0.508023 1.08751e-20)
(1.2426 0.487912 -1.12051e-20)
(1.25335 0.467846 2.21116e-20)
(1.26245 0.447778 -4.49645e-20)
(1.27001 0.42784 2.27384e-20)
(1.27595 0.408637 1.20293e-20)
(1.2805 0.390187 1.20923e-20)
(1.28399 0.372114 -2.35867e-20)
(1.28655 0.354421 4.75707e-20)
(1.28824 0.337123 0)
(1.28908 0.320614 3.61452e-20)
(1.2892 0.304839 -3.55297e-20)
(1.28872 0.28945 2.37891e-20)
(1.28768 0.274438 -1.78291e-20)
(1.28613 0.2598 6.10781e-21)
(1.28412 0.245701 5.79896e-21)
(1.28172 0.23217 -2.89892e-22)
(1.27896 0.219018 -6.05397e-21)
(1.27584 0.20619 0)
(1.27238 0.193724 -2.90801e-21)
(1.26858 0.181702 3.05581e-21)
(0.796228 0.462511 0)
(0.808251 0.479693 0)
(0.821032 0.497251 -1.9252e-21)
(0.835152 0.514938 6.728e-22)
(0.851164 0.532136 6.72714e-23)
(0.869645 0.548736 -1.46805e-21)
(0.89048 0.563563 2.36605e-21)
(0.913704 0.576459 0)
(0.939264 0.586905 0)
(0.96605 0.593961 -5.50557e-21)
(0.994118 0.597802 -8.01544e-21)
(1.02299 0.598283 -3.56063e-23)
(1.05112 0.595129 1.44255e-20)
(1.0783 0.588685 -3.01396e-21)
(1.10479 0.579302 -9.47001e-21)
(1.12942 0.567349 0)
(1.15159 0.553359 0)
(1.17176 0.537666 0)
(1.1901 0.520545 0)
(1.2062 0.502561 -1.68589e-20)
(1.2199 0.484266 1.70731e-20)
(1.23165 0.465728 2.65963e-20)
(1.24178 0.446959 -3.67451e-20)
(1.25039 0.428116 9.58756e-21)
(1.25735 0.409772 0)
(1.26285 0.391987 -1.94202e-20)
(1.26725 0.374461 1.95874e-20)
(1.27066 0.357216 -1.02357e-20)
(1.27314 0.340286 0)
(1.27471 0.324048 -1.02728e-20)
(1.27549 0.308468 1.0405e-20)
(1.27561 0.293235 4.02283e-20)
(1.27513 0.278347 -4.0305e-20)
(1.2741 0.263804 2.02023e-20)
(1.27255 0.249768 -5.16645e-21)
(1.27057 0.23627 -2.49637e-20)
(1.26819 0.223137 1.00755e-20)
(1.26541 0.210315 4.97625e-21)
(1.26226 0.197846 -7.4802e-21)
(1.25873 0.18581 2.59535e-21)
(0.812966 0.445928 0)
(0.823652 0.460846 0)
(0.834914 0.476085 1.14201e-21)
(0.847215 0.49147 -6.98475e-22)
(0.861021 0.506524 8.58863e-23)
(0.876823 0.521219 8.82027e-22)
(0.894601 0.534608 -1.6852e-21)
(0.91444 0.546602 -1.12842e-21)
(0.936397 0.556769 3.70017e-21)
(0.959653 0.564236 -4.12604e-21)
(0.984294 0.569129 -1.17269e-22)
(1.00998 0.571245 5.48857e-23)
(1.03544 0.570162 5.55129e-21)
(1.06044 0.566114 8.60168e-21)
(1.08519 0.559379 1.06065e-20)
(1.10862 0.550124 -1.35878e-22)
(1.13011 0.538736 -1.04559e-20)
(1.15 0.525536 0)
(1.16837 0.510772 -1.2119e-20)
(1.18479 0.494911 1.28707e-20)
(1.19903 0.478448 -1.43015e-20)
(1.21144 0.4615 7.53737e-21)
(1.22234 0.444125 3.00754e-22)
(1.23176 0.426493 8.32604e-21)
(1.23953 0.409132 -1.58455e-20)
(1.24583 0.392144 0)
(1.25102 0.375291 2.44436e-20)
(1.25517 0.358617 -4.13949e-20)
(1.25836 0.342168 3.35579e-20)
(1.26059 0.326307 -2.56947e-20)
(1.26197 0.31102 -1.69696e-20)
(1.26266 0.296032 1.71049e-20)
(1.26271 0.281349 1.70932e-20)
(1.26216 0.266977 -1.7197e-20)
(1.26106 0.253074 8.55378e-21)
(1.25948 0.239675 1.98506e-22)
(1.25746 0.226619 0)
(1.25502 0.213862 0)
(1.25217 0.201444 4.16418e-21)
(1.24889 0.189441 0)
(0.827327 0.431348 7.70907e-22)
(0.836963 0.444449 1.39125e-22)
(0.847058 0.457817 -1.41676e-22)
(0.857986 0.471322 2.99015e-24)
(0.870136 0.484581 0)
(0.883925 0.497612 -2.38528e-22)
(0.899372 0.509641 5.44826e-22)
(0.916582 0.520631 -5.5462e-22)
(0.935665 0.530233 2.05813e-21)
(0.956009 0.537668 -2.49096e-21)
(0.977723 0.54304 3.92757e-21)
(1.00058 0.546132 0)
(1.02353 0.546456 -5.11902e-21)
(1.04638 0.544161 1.5671e-21)
(1.06928 0.539464 1.50951e-20)
(1.09129 0.532385 -1.6243e-20)
(1.11182 0.523189 2.69566e-20)
(1.13109 0.512164 -9.30519e-21)
(1.14915 0.499524 1.08957e-20)
(1.16555 0.485639 -1.15764e-20)
(1.18 0.470936 0)
(1.19279 0.455565 1.26599e-20)
(1.20418 0.439608 1.21125e-20)
(1.21417 0.423238 0)
(1.22257 0.406939 0)
(1.22951 0.390835 1.31625e-20)
(1.23534 0.37475 6.7383e-21)
(1.24013 0.35874 -6.76132e-21)
(1.24395 0.342866 1.38223e-20)
(1.24676 0.327471 2.14315e-20)
(1.24869 0.312562 -1.44925e-20)
(1.24989 0.2979 0)
(1.25042 0.283497 -1.46365e-20)
(1.25033 0.269367 1.4731e-20)
(1.24964 0.255662 7.34583e-21)
(1.24844 0.242423 -5.27536e-23)
(1.24677 0.229504 -7.40762e-21)
(1.24465 0.216865 0)
(1.24209 0.20455 -1.09528e-20)
(1.23908 0.192626 0)
(0.839786 0.41837 -9.32879e-22)
(0.848572 0.429986 9.51417e-22)
(0.857738 0.44182 6.65673e-22)
(0.867591 0.453772 -5.00543e-22)
(0.878459 0.465526 -1.89054e-22)
(0.890694 0.477122 2.19476e-22)
(0.904329 0.487921 5.65835e-22)
(0.919472 0.497917 -9.99331e-22)
(0.936255 0.506834 -2.49027e-22)
(0.95421 0.51399 2.0817e-21)
(0.973458 0.519478 -5.82236e-21)
(0.993851 0.523091 -6.19028e-22)
(1.01454 0.524325 1.31585e-20)
(1.03536 0.523272 -9.36259e-21)
(1.05643 0.520102 -6.12125e-21)
(1.07695 0.514736 7.39107e-21)
(1.09635 0.507338 -1.45839e-20)
(1.11479 0.498159 -7.48348e-21)
(1.13229 0.487374 1.74233e-20)
(1.1484 0.475268 -1.77046e-20)
(1.16279 0.4622 0)
(1.17572 0.448333 0)
(1.18736 0.433762 -8.53116e-22)
(1.19772 0.418655 0)
(1.20655 0.403444 0)
(1.21398 0.388273 -1.19574e-20)
(1.22032 0.373014 -1.14013e-20)
(1.22562 0.357733 -1.16351e-20)
(1.22995 0.342501 1.14149e-20)
(1.23327 0.327642 -6.70711e-21)
(1.23568 0.31318 -3.52599e-22)
(1.23734 0.298911 1.25365e-20)
(1.23831 0.284852 0)
(1.23863 0.271025 1.88078e-20)
(1.23833 0.257577 -1.27539e-20)
(1.23748 0.244554 -1.25656e-20)
(1.23614 0.231824 6.4064e-21)
(1.23432 0.219353 -3.17949e-21)
(1.23205 0.207185 9.7526e-21)
(1.22929 0.195383 0)
(0.850695 0.406702 6.07924e-22)
(0.858776 0.417084 -3.86235e-22)
(0.867182 0.427641 -1.59266e-22)
(0.87617 0.438296 4.30528e-22)
(0.886016 0.44878 2.15004e-22)
(0.897018 0.459144 1.48021e-22)
(0.909216 0.468851 -6.7601e-22)
(0.92271 0.477918 1.72076e-21)
(0.937634 0.486122 -2.61953e-21)
(0.953625 0.492872 -1.91461e-21)
(0.970806 0.498258 2.45607e-21)
(0.989086 0.50209 -3.11539e-21)
(1.00778 0.50388 6.49117e-21)
(1.02673 0.503682 4.32066e-21)
(1.04607 0.501631 9.38998e-21)
(1.06511 0.497584 5.77017e-22)
(1.08331 0.491633 -6.24717e-21)
(1.1008 0.483988 2.64206e-20)
(1.11758 0.474789 -3.47938e-20)
(1.1332 0.464247 3.02066e-20)
(1.14735 0.452658 -7.99836e-21)
(1.16019 0.440185 0)
(1.17189 0.426927 -7.13961e-22)
(1.18242 0.41304 0)
(1.19153 0.398908 0)
(1.19929 0.384683 0)
(1.206 0.370276 6.90376e-22)
(1.21171 0.355761 3.12969e-20)
(1.21646 0.341214 -3.15787e-20)
(1.22019 0.32694 -3.30529e-22)
(1.22301 0.312978 -2.17563e-20)
(1.22507 0.299153 1.08259e-20)
(1.22643 0.28549 -1.06344e-20)
(1.22711 0.272017 -1.6639e-20)
(1.22716 0.258876 -5.37387e-21)
(1.22664 0.246115 1.10892e-20)
(1.2256 0.23362 0)
(1.22407 0.221361 -5.41734e-21)
(1.22207 0.209382 -6.79565e-21)
(1.21955 0.197741 1.42622e-21)
(0.860324 0.396124 5.41803e-22)
(0.867808 0.405468 0)
(0.875578 0.414949 -1.21792e-21)
(0.88385 0.424507 3.8361e-22)
(0.892861 0.433912 1.73806e-22)
(0.902865 0.443216 -9.96687e-24)
(0.913897 0.451963 0)
(0.926053 0.460182 -7.41543e-22)
(0.939457 0.467694 1.13201e-21)
(0.953822 0.473986 -1.64669e-21)
(0.969268 0.479144 -2.18219e-21)
(0.985742 0.483003 -4.26275e-22)
(1.00268 0.485102 -3.96447e-22)
(1.01996 0.485473 0)
(1.0377 0.484225 -1.22297e-20)
(1.05531 0.481181 1.29923e-20)
(1.07232 0.476376 0)
(1.08881 0.469987 -1.08501e-20)
(1.10477 0.462122 6.17619e-21)
(1.11978 0.452932 -1.30365e-20)
(1.13353 0.442655 6.12781e-21)
(1.14615 0.431448 0)
(1.15775 0.419404 7.4534e-21)
(1.1683 0.406669 -7.87241e-21)
(1.17752 0.393577 0)
(1.18549 0.380284 -1.69582e-20)
(1.19246 0.36673 1.77212e-20)
(1.19845 0.352992 9.22344e-21)
(1.20352 0.339153 -1.79148e-20)
(1.20758 0.325494 0)
(1.21073 0.312067 2.81553e-22)
(1.21313 0.298724 -1.85119e-20)
(1.21482 0.285497 9.78265e-21)
(1.21583 0.272416 0)
(1.21619 0.259621 4.95194e-21)
(1.21596 0.247163 -4.97102e-21)
(1.2152 0.234941 4.72028e-21)
(1.21393 0.22293 4.99559e-21)
(1.21218 0.211176 9.72746e-21)
(1.20988 0.199732 4.8189e-21)
(0.868882 0.38647 0)
(0.875851 0.394928 0)
(0.88308 0.403493 3.66582e-23)
(0.890748 0.412115 -6.92725e-22)
(0.899062 0.420594 -5.80499e-24)
(0.908237 0.428981 5.77366e-23)
(0.918308 0.436887 0)
(0.929358 0.444343 0)
(0.941504 0.451205 1.03128e-21)
(0.954511 0.457028 -1.05664e-21)
(0.968493 0.461893 4.14939e-22)
(0.983423 0.465659 -1.77419e-21)
(0.998835 0.4679 0)
(1.01463 0.468634 0)
(1.03092 0.467952 6.14659e-21)
(1.04719 0.46566 -7.03803e-21)
(1.06304 0.461755 7.08294e-22)
(1.07853 0.456384 5.4823e-21)
(1.09362 0.449628 -9.56678e-21)
(1.10795 0.441591 0)
(1.12121 0.432463 5.536e-21)
(1.13348 0.422386 5.8705e-21)
(1.14486 0.411448 0)
(1.1553 0.399781 6.64682e-21)
(1.16453 0.387672 -1.38345e-20)
(1.17258 0.375276 0)
(1.17969 0.362556 7.72842e-21)
(1.18588 0.349589 -7.48369e-21)
(1.19117 0.336461 2.3085e-20)
(1.19548 0.32343 0)
(1.1989 0.310558 1.6185e-20)
(1.20157 0.297722 8.44745e-21)
(1.20354 0.284957 8.05216e-21)
(1.20482 0.272299 -8.34107e-21)
(1.20545 0.25988 8.42279e-21)
(1.20547 0.247756 0)
(1.20496 0.235838 -4.37172e-21)
(1.20393 0.224107 0)
(1.20241 0.212608 -4.38624e-21)
(1.20032 0.20139 -4.44322e-21)
(0.876535 0.377607 3.40305e-22)
(0.883054 0.385304 -4.76882e-22)
(0.889812 0.393079 1.0608e-21)
(0.896963 0.400894 3.16717e-22)
(0.904682 0.408574 -1.39347e-22)
(0.913159 0.416165 -1.3068e-22)
(0.922421 0.42333 7.83944e-23)
(0.932545 0.430105 -9.19225e-22)
(0.943634 0.436369 -5.4563e-22)
(0.955495 0.441734 -8.90907e-22)
(0.968234 0.446279 2.61062e-22)
(0.981837 0.44988 3.59945e-21)
(0.995918 0.452153 -3.69194e-21)
(1.0104 0.453105 -5.2227e-22)
(1.02538 0.452813 -6.12475e-22)
(1.04043 0.451078 1.30871e-20)
(1.05518 0.447874 -6.61585e-21)
(1.06968 0.443322 7.39582e-21)
(1.08391 0.437483 -8.7309e-21)
(1.09752 0.430421 5.71618e-23)
(1.11022 0.422287 -5.1391e-21)
(1.12207 0.413209 5.23203e-21)
(1.13314 0.403266 -1.57453e-22)
(1.14337 0.392573 0)
(1.15251 0.38138 0)
(1.16055 0.369833 -1.21177e-20)
(1.16771 0.357914 -6.26063e-21)
(1.174 0.345698 -6.44539e-21)
(1.17943 0.33327 -4.38919e-22)
(1.18393 0.320868 -2.07229e-20)
(1.18754 0.30856 6.77108e-21)
(1.19043 0.296244 0)
(1.19262 0.283958 -1.47428e-20)
(1.19413 0.271741 1.44371e-20)
(1.19498 0.259721 0)
(1.19523 0.247954 7.42125e-21)
(1.19494 0.236364 -3.76276e-21)
(1.19412 0.224938 -7.49958e-21)
(1.1928 0.213718 5.64104e-21)
(1.1909 0.202752 -5.59204e-21)
(0.883414 0.36943 0)
(0.889536 0.376465 0)
(0.89588 0.383555 -8.14148e-22)
(0.902579 0.39067 0)
(0.909785 0.397653 0)
(0.917662 0.404549 -6.44186e-23)
(0.926235 0.411062 6.60396e-23)
(0.935569 0.417228 8.65938e-22)
(0.94576 0.422947 1.33231e-21)
(0.956643 0.427879 2.66365e-21)
(0.968316 0.432097 3.51281e-21)
(0.980775 0.435496 3.07123e-21)
(0.993694 0.437728 -2.74091e-21)
(1.00701 0.438795 1.85368e-22)
(1.02082 0.438764 -4.35266e-21)
(1.03475 0.43744 1.06894e-20)
(1.04847 0.43478 -5.68055e-21)
(1.06204 0.430885 6.34365e-21)
(1.07542 0.425798 0)
(1.08831 0.419557 1.63263e-20)
(1.10041 0.412278 -1.63865e-20)
(1.11179 0.404075 -8.69148e-21)
(1.12249 0.395019 -1.91479e-20)
(1.13245 0.385208 -5.13993e-22)
(1.14141 0.374858 -3.20531e-22)
(1.14936 0.364105 2.20368e-20)
(1.1565 0.352945 5.83554e-21)
(1.16282 0.34145 1.72583e-20)
(1.16832 0.329701 -1.76697e-20)
(1.17293 0.317918 6.29496e-21)
(1.17668 0.306172 1.24206e-20)
(1.17973 0.294379 -1.25365e-20)
(1.18209 0.28258 0)
(1.18378 0.270816 -6.64252e-21)
(1.18482 0.259208 0)
(1.18526 0.247816 1.65769e-22)
(1.18515 0.236572 -6.60647e-21)
(1.18451 0.225468 0)
(1.18338 0.214547 6.4629e-21)
(1.18165 0.203854 1.84399e-22)
(0.889628 0.361855 6.34478e-22)
(0.895394 0.36831 -1.03709e-22)
(0.90137 0.3748 1.31874e-22)
(0.907669 0.381301 -2.3283e-24)
(0.914425 0.387675 4.15717e-22)
(0.92178 0.39396 5.54221e-23)
(0.929756 0.399897 2.15123e-22)
(0.938411 0.40552 4.11218e-22)
(0.947828 0.410744 6.4382e-22)
(0.957868 0.415271 -2.23577e-21)
(0.968619 0.41917 -2.03014e-21)
(0.980084 0.422348 0)
(0.991985 0.424494 5.90068e-21)
(1.00427 0.425606 7.67548e-23)
(1.01703 0.425743 -7.57803e-21)
(1.02994 0.424718 -4.78088e-21)
(1.04272 0.422479 4.93944e-21)
(1.05541 0.419109 5.4572e-21)
(1.06797 0.41464 -6.00073e-21)
(1.08014 0.409088 0)
(1.09164 0.402542 7.63595e-21)
(1.10252 0.395103 8.59101e-21)
(1.11281 0.386831 9.75986e-22)
(1.12244 0.377814 -2.602e-20)
(1.13117 0.368233 -8.86571e-21)
(1.13897 0.358216 0)
(1.14602 0.347768 9.95986e-21)
(1.15231 0.336956 -2.05849e-20)
(1.15782 0.325858 1.0782e-20)
(1.16248 0.314677 -3.72595e-22)
(1.16633 0.303484 1.04748e-20)
(1.16948 0.29221 2.18036e-20)
(1.17196 0.280898 -5.46663e-21)
(1.1738 0.269591 0)
(1.17499 0.258403 -5.59447e-21)
(1.17558 0.247395 5.97423e-21)
(1.17563 0.23651 0)
(1.17515 0.225743 5.70859e-21)
(1.17417 0.215136 -7.52025e-21)
(1.1726 0.204732 4.49797e-21)
(0.895263 0.354812 0)
(0.90071 0.360755 0)
(0.906355 0.366716 -2.81693e-22)
(0.912296 0.372677 -2.06038e-24)
(0.918653 0.378512 -5.78825e-22)
(0.925548 0.384257 0)
(0.933001 0.389683 3.23204e-22)
(0.941062 0.394821 -1.25133e-21)
(0.949806 0.399598 0)
(0.959112 0.403752 0)
(0.969059 0.407345 0)
(0.979654 0.410298 -2.29904e-21)
(0.990658 0.41233 2.14349e-21)
(1.00203 0.413439 -3.17361e-22)
(1.01384 0.413677 -1.48235e-22)
(1.02584 0.412867 -7.17469e-23)
(1.03775 0.410953 -3.54107e-22)
(1.04961 0.408004 -5.14593e-21)
(1.06141 0.404041 0)
(1.07288 0.399067 0)
(1.08378 0.393149 0)
(1.09415 0.386375 2.10418e-20)
(1.104 0.378796 -1.36075e-20)
(1.11327 0.370487 1.56747e-20)
(1.12172 0.361604 4.41986e-22)
(1.12934 0.352265 -8.45235e-21)
(1.13625 0.34248 8.53739e-21)
(1.14245 0.33231 -9.02714e-21)
(1.14792 0.321833 1.8001e-20)
(1.15258 0.31123 -5.90925e-22)
(1.15647 0.300574 -9.92805e-21)
(1.15969 0.289809 -5.93651e-22)
(1.16226 0.27898 -4.53773e-21)
(1.16419 0.268128 1.00806e-20)
(1.1655 0.257363 1.63261e-22)
(1.16621 0.246745 -5.14356e-21)
(1.16638 0.236226 5.16684e-21)
(1.16604 0.225805 -1.56489e-20)
(1.16519 0.215522 3.78179e-21)
(1.16376 0.205419 1.30286e-21)
(0.900395 0.348242 -1.55228e-22)
(0.90555 0.353731 2.90842e-22)
(0.910894 0.359222 1.04752e-21)
(0.916514 0.364704 3.59654e-22)
(0.922511 0.370063 1.89632e-22)
(0.928997 0.375328 -1.4754e-23)
(0.935986 0.380298 -2.07323e-23)
(0.943524 0.385002 -3.046e-22)
(0.951676 0.389375 1.34004e-21)
(0.960337 0.393186 -2.12154e-21)
(0.969577 0.396491 1.42862e-21)
(0.979405 0.399221 2.37539e-22)
(0.989614 0.401125 -4.37793e-21)
(1.00017 0.4022 -5.24652e-21)
(1.01114 0.40249 3.1453e-21)
(1.0223 0.401832 6.93884e-21)
(1.03341 0.400168 4.09105e-21)
(1.04452 0.397556 -1.24021e-20)
(1.05558 0.39401 0)
(1.06638 0.389522 0)
(1.07671 0.384142 5.39484e-21)
(1.08656 0.377945 1.22366e-20)
(1.09597 0.370977 -1.2633e-20)
(1.10486 0.363301 -5.55068e-22)
(1.11301 0.35505 -4.95448e-22)
(1.12039 0.346331 -4.42024e-22)
(1.12713 0.337159 7.32104e-21)
(1.1332 0.327591 7.79544e-21)
(1.13859 0.317699 -1.65625e-20)
(1.14322 0.307648 7.75793e-21)
(1.1471 0.297511 8.55436e-21)
(1.15035 0.287242 -4.52024e-22)
(1.15297 0.276885 3.10865e-22)
(1.15497 0.266482 8.95133e-21)
(1.15636 0.256138 -4.51855e-21)
(1.15716 0.245912 -9.13687e-21)
(1.15744 0.235763 4.61019e-21)
(1.1572 0.225693 4.77354e-21)
(1.15647 0.215742 -2.66462e-22)
(1.15515 0.205949 0)
(0.905082 0.342097 1.0617e-21)
(0.909971 0.34718 -1.86891e-22)
(0.91504 0.352253 -5.20538e-22)
(0.920367 0.357307 -3.13714e-22)
(0.92604 0.36224 -3.00513e-23)
(0.932157 0.367079 -7.69121e-23)
(0.938732 0.371641 -4.51074e-22)
(0.945804 0.375954 5.06879e-22)
(0.953431 0.379963 0)
(0.961519 0.383459 1.06006e-21)
(0.970132 0.386495 -1.35724e-21)
(0.979279 0.389011 3.45764e-21)
(0.98878 0.39078 -5.82002e-21)
(0.998604 0.391799 2.31124e-21)
(1.00882 0.392109 5.63535e-21)
(1.01922 0.391557 -8.89552e-21)
(1.0296 0.390085 0)
(1.04 0.387744 3.93184e-21)
(1.05038 0.384542 0)
(1.06055 0.380463 4.3884e-21)
(1.07031 0.375543 -1.51965e-20)
(1.07967 0.369849 1.02055e-20)
(1.08863 0.363419 -1.12041e-20)
(1.09712 0.356307 0)
(1.10496 0.348627 -6.02871e-21)
(1.11208 0.340475 0)
(1.11862 0.331869 -1.36567e-20)
(1.12453 0.322862 1.37936e-20)
(1.12981 0.313519 0)
(1.13437 0.303993 -1.50997e-20)
(1.13822 0.294352 -9.11403e-23)
(1.14146 0.284562 7.45372e-21)
(1.14409 0.274665 -7.81726e-21)
(1.14613 0.264703 0)
(1.14757 0.254775 0)
(1.14844 0.244937 0)
(1.14879 0.235158 1.20806e-20)
(1.14864 0.225441 -4.13917e-21)
(1.148 0.215826 -2.39695e-22)
(1.14678 0.206349 0)
(0.909377 0.336334 -2.35313e-22)
(0.91402 0.341053 -1.67569e-22)
(0.918838 0.345751 4.35383e-22)
(0.923895 0.350423 -2.85908e-22)
(0.929272 0.354975 -1.10606e-23)
(0.935056 0.35943 -3.09818e-23)
(0.941257 0.363627 7.70107e-23)
(0.94791 0.367589 -3.77172e-22)
(0.955066 0.371267 1.20153e-21)
(0.962643 0.374475 8.79735e-22)
(0.970697 0.377262 0)
(0.979236 0.379574 1.57087e-21)
(0.988102 0.381207 2.00984e-22)
(0.997269 0.382159 -2.23547e-21)
(1.0068 0.382464 4.39852e-21)
(1.01651 0.381983 0)
(1.02623 0.380661 0)
(1.03597 0.378538 1.34163e-20)
(1.04572 0.37562 5.76465e-22)
(1.05529 0.371886 -4.1283e-21)
(1.06451 0.367363 8.38748e-21)
(1.07338 0.362107 -8.97975e-21)
(1.0819 0.356151 -4.45052e-21)
(1.09 0.349543 -1.06543e-20)
(1.0975 0.342377 1.65062e-20)
(1.10436 0.334743 1.16704e-20)
(1.11067 0.326658 -2.97078e-20)
(1.1164 0.318171 1.82576e-20)
(1.12154 0.309344 1.28929e-20)
(1.126 0.300313 -6.65644e-21)
(1.12979 0.291147 0)
(1.13299 0.281817 6.67329e-21)
(1.13561 0.272365 0)
(1.13766 0.262832 0)
(1.13913 0.253311 7.19792e-21)
(1.14005 0.243859 -1.43375e-20)
(1.14046 0.234447 -1.46865e-20)
(1.14037 0.225083 -7.17739e-21)
(1.13981 0.215804 -6.49991e-21)
(1.13866 0.206646 -9.10735e-22)
(0.913323 0.33092 0)
(0.91774 0.33531 0)
(0.922323 0.339669 -8.08693e-22)
(0.927132 0.343997 1.7937e-23)
(0.932238 0.348206 1.12967e-22)
(0.937718 0.352317 4.03664e-23)
(0.943579 0.356185 -2.0842e-22)
(0.949853 0.359829 0)
(0.956584 0.363208 -6.16466e-22)
(0.9637 0.366153 -2.41466e-21)
(0.971251 0.36871 2.00695e-21)
(0.979243 0.370829 2.48002e-21)
(0.987538 0.37233 0)
(0.996112 0.373206 -3.49695e-21)
(1.00502 0.373491 -8.44438e-21)
(1.01411 0.373056 9.09305e-21)
(1.02321 0.371849 4.24766e-22)
(1.03235 0.369903 -1.79563e-20)
(1.04151 0.367221 6.69852e-21)
(1.05052 0.363781 -2.15449e-20)
(1.05923 0.3596 -5.2388e-22)
(1.06762 0.354728 5.51413e-22)
(1.07571 0.349192 5.82136e-22)
(1.08342 0.343032 9.46323e-21)
(1.09059 0.336331 3.72139e-22)
(1.09717 0.329169 -9.57671e-21)
(1.10324 0.321563 -5.43986e-21)
(1.10878 0.313559 -5.97728e-21)
(1.11376 0.305213 1.12541e-20)
(1.11809 0.29665 -6.06157e-21)
(1.1218 0.287935 0)
(1.12494 0.279046 -1.68423e-22)
(1.12753 0.270022 -1.85597e-20)
(1.12957 0.260906 -3.06376e-23)
(1.13104 0.251783 6.42236e-21)
(1.13198 0.242708 6.70549e-21)
(1.13243 0.23366 6.76298e-21)
(1.13239 0.224646 6.80969e-21)
(1.13188 0.215703 9.86895e-21)
(1.13081 0.206866 0)
(0.916959 0.325821 3.37884e-23)
(0.921164 0.329914 -4.69603e-22)
(0.92553 0.333968 3.75715e-22)
(0.930109 0.337984 -2.57011e-22)
(0.934964 0.341883 -6.56524e-23)
(0.940163 0.345684 0)
(0.945714 0.349254 1.99792e-22)
(0.951642 0.352611 0)
(0.957988 0.355718 -1.04237e-21)
(0.964687 0.358423 1.50632e-21)
(0.971781 0.360768 -1.91867e-21)
(0.97928 0.362708 -2.36916e-21)
(0.987057 0.364079 -2.67447e-21)
(0.995093 0.364878 -1.0727e-22)
(1.00344 0.365132 7.32118e-21)
(1.01195 0.364725 7.67374e-23)
(1.02049 0.363605 4.0136e-22)
(1.02907 0.361804 0)
(1.03768 0.359321 1.19964e-20)
(1.04617 0.356131 -6.08694e-21)
(1.05439 0.352247 7.04068e-21)
(1.06233 0.347711 -7.05117e-21)
(1.07 0.342547 2.32434e-20)
(1.07733 0.336789 0)
(1.08417 0.330509 0)
(1.09047 0.323777 5.78882e-22)
(1.09629 0.316612 -9.81325e-21)
(1.10162 0.309055 0)
(1.10642 0.301159 -3.9574e-22)
(1.11062 0.293037 1.03908e-20)
(1.11422 0.284749 -3.73297e-22)
(1.11729 0.276281 1.09051e-20)
(1.11983 0.267669 5.76973e-21)
(1.12183 0.258955 -1.12089e-20)
(1.1233 0.250219 -1.402e-23)
(1.12424 0.241514 5.82359e-21)
(1.12471 0.232823 0)
(1.12469 0.224154 2.80305e-21)
(1.12423 0.215545 -3.14993e-21)
(1.12321 0.207028 -5.60744e-21)
(0.920315 0.321013 6.74435e-23)
(0.924323 0.324835 7.93594e-22)
(0.928487 0.328611 -9.55324e-23)
(0.932851 0.332345 4.04572e-22)
(0.937473 0.335964 1.14082e-22)
(0.942414 0.339483 1.44378e-23)
(0.947678 0.342783 3.44296e-22)
(0.953289 0.34588 0)
(0.959284 0.348739 1.94151e-21)
(0.965601 0.351226 0)
(0.972281 0.353375 0)
(0.97933 0.355147 0)
(0.986637 0.356396 4.95741e-21)
(0.994183 0.357116 0)
(1.00201 0.357333 3.04896e-22)
(1.01 0.35694 -1.12343e-20)
(1.01802 0.35589 8.14989e-21)
(1.02609 0.354207 4.55731e-21)
(1.03419 0.351891 0)
(1.04218 0.348916 -5.46596e-21)
(1.04994 0.345291 -6.2858e-21)
(1.05746 0.341052 7.47373e-24)
(1.06472 0.336219 -7.58604e-21)
(1.07168 0.330822 6.81814e-21)
(1.07819 0.324922 7.63262e-21)
(1.0842 0.318584 5.11948e-22)
(1.08978 0.311825 -8.24444e-21)
(1.09489 0.304683 -3.61765e-22)
(1.0995 0.297206 -4.03863e-22)
(1.10355 0.289498 0)