/*--------------------------------*- C++ -*----------------------------------*\
| =========                 |                                                 |
| \\      /  F ield         | OpenFOAM: The Open Source CFD Toolbox           |
|  \\    /   O peration     | Version:  3.0.1                                 |
|   \\  /    A nd           | Web:      www.OpenFOAM.org                      |
|    \\/     M anipulation  |                                                 |
\*---------------------------------------------------------------------------*/
FoamFile
{
    version     2.0;
    format      ascii;
    class       volScalarField;
    location    "500";
    object      nut;
}
// * * * * * * * * * * * * * * * * * * * * * * * * * * * * * * * * * * * * * //

dimensions      [0 2 -1 0 0 0 0];

internalField   nonuniform List<scalar> 
58000
(
0.000775856
0.00070556
0.000634386
0.000574065
0.000526224
0.000488288
0.000462212
0.000440719
0.000426109
0.000417048
0.000410389
0.000406434
0.000405241
0.00040401
0.000402938
0.000402686
0.000403312
0.000404504
0.000406043
0.00040796
0.00041029
0.000412835
0.000415597
0.000418358
0.000421304
0.000424104
0.000426928
0.000429735
0.000432375
0.000434966
0.000437254
0.000439351
0.000441199
0.000442733
0.000444002
0.00044464
0.00044422
0.000443297
0.000442217
0.000442631
0.00293874
0.00262226
0.00227004
0.00194845
0.00168905
0.00148364
0.00132697
0.00120197
0.00110583
0.0010341
0.000977302
0.000934126
0.000902189
0.000876045
0.000851854
0.000832768
0.000818536
0.000806221
0.000794713
0.000785409
0.000778816
0.000773245
0.000768172
0.000763292
0.000760218
0.000757479
0.000754771
0.00075203
0.000749069
0.000746834
0.000744663
0.000741163
0.00073642
0.00073069
0.000724419
0.000716577
0.000707976
0.00069949
0.000691521
0.000688419
0.00516228
0.00478399
0.00433945
0.00387085
0.00344301
0.00307261
0.00277746
0.00253439
0.00233834
0.00218595
0.00206256
0.00196107
0.00188462
0.00182339
0.00177038
0.00172931
0.00169863
0.00167326
0.00165086
0.00163317
0.00162042
0.00160958
0.00159947
0.00158948
0.0015822
0.00157454
0.00156568
0.00155586
0.00154507
0.0015358
0.00152647
0.00151663
0.00150627
0.00149505
0.00148278
0.00146795
0.00145111
0.00143396
0.00141809
0.0014101
0.00738155
0.00696435
0.006454
0.00591336
0.00539262
0.00490553
0.00449237
0.00413705
0.00384116
0.00360551
0.00340743
0.00324213
0.00311419
0.00300987
0.00291946
0.0028476
0.00279193
0.00274522
0.00270405
0.00267068
0.00264515
0.00262303
0.00260092
0.00257839
0.00256054
0.00254431
0.00252788
0.00251097
0.00249302
0.00247663
0.00245972
0.00244149
0.00242203
0.00240142
0.00238054
0.00235676
0.00233036
0.00230327
0.00227773
0.00226064
0.00957631
0.00913925
0.00859581
0.00801129
0.00742839
0.00687137
0.00637637
0.00593202
0.0055468
0.00522988
0.00495684
0.00472396
0.00453939
0.00438628
0.00425213
0.00414355
0.00405765
0.00398443
0.00391892
0.00386421
0.00381971
0.00378016
0.00374302
0.003707
0.00367838
0.00365143
0.00362377
0.0035953
0.0035658
0.00354017
0.00351393
0.0034858
0.00345583
0.00342417
0.00339263
0.00335797
0.00332018
0.00328136
0.00324427
0.00321578
0.011743
0.0112943
0.0107336
0.0101214
0.00950432
0.00889904
0.00834718
0.00783994
0.00738456
0.00699823
0.00665746
0.00636004
0.00611861
0.005915
0.00573453
0.00558533
0.00546467
0.00536077
0.00526604
0.00518498
0.0051189
0.00506034
0.00500626
0.00495304
0.00490795
0.00486686
0.00482623
0.00478562
0.00474339
0.00470457
0.00466645
0.00462733
0.00458573
0.00454179
0.00449794
0.00445079
0.00440007
0.00434801
0.00429777
0.00425594
0.013885
0.0134294
0.0128603
0.0122335
0.0115964
0.0109597
0.0103691
0.00981256
0.00930455
0.00886361
0.00846639
0.00811064
0.00781553
0.00756266
0.00733671
0.00714556
0.00698753
0.00684871
0.00672264
0.00661429
0.00652541
0.00644493
0.00636879
0.00629606
0.00623478
0.0061781
0.00612199
0.00606571
0.00600927
0.00595676
0.0059052
0.00585285
0.00579762
0.00573967
0.00568183
0.00562067
0.00555565
0.00548904
0.00542424
0.00536752
0.016006
0.015546
0.0149732
0.0143394
0.0136911
0.0130354
0.0124173
0.0118276
0.0112795
0.0107919
0.0103461
0.00994256
0.0096006
0.00930201
0.00903005
0.00879765
0.00860336
0.00843098
0.00827331
0.00813652
0.00802063
0.0079164
0.00781819
0.00772497
0.00764365
0.00756923
0.00749698
0.0074243
0.00735087
0.00728348
0.00721721
0.00714986
0.00707945
0.00700617
0.00693306
0.00685668
0.0067762
0.00669391
0.00661335
0.00654045
0.0181095
0.0176467
0.0170726
0.0164358
0.0157816
0.0151155
0.0144797
0.013867
0.013287
0.012766
0.0122819
0.0118358
0.0114518
0.011112
0.010799
0.0105279
0.0102993
0.0100937
0.00990372
0.00973628
0.00959339
0.00946531
0.00934375
0.00922731
0.00912587
0.00903232
0.00894073
0.00885067
0.0087597
0.00867562
0.00859287
0.00850812
0.00842173
0.00833233
0.008243
0.00815039
0.00805346
0.00795451
0.00785716
0.00776699
0.0201986
0.0197338
0.01916
0.0185226
0.0178641
0.017194
0.0165478
0.0159199
0.0153177
0.0147698
0.0142535
0.0137743
0.0133554
0.0129794
0.0126294
0.0123217
0.0120574
0.0118191
0.0115983
0.0114028
0.0112329
0.0110785
0.0109336
0.0107941
0.01067
0.0105566
0.0104455
0.0103363
0.0102264
0.0101241
0.0100239
0.00992171
0.00981808
0.00971157
0.00960498
0.00949513
0.00938082
0.00926432
0.00914929
0.00904095
0.0222756
0.0218097
0.0212373
0.0206015
0.0199425
0.01927
0.0186171
0.0179786
0.0173609
0.0167915
0.0162517
0.0157451
0.0152964
0.0148876
0.0145044
0.0141641
0.0138681
0.0136001
0.0133492
0.0131237
0.0129268
0.0127477
0.0125774
0.012415
0.0122687
0.0121334
0.0120023
0.011872
0.0117427
0.0116208
0.011503
0.011383
0.0112617
0.0111382
0.0110132
0.0108851
0.0107526
0.0106179
0.0104845
0.0103573
0.0243426
0.0238759
0.0233056
0.0226725
0.022015
0.0213424
0.0206854
0.0200382
0.0194112
0.0188268
0.0182682
0.0177375
0.017263
0.0168289
0.0164177
0.0160482
0.0157228
0.0154244
0.0151446
0.0148924
0.0146693
0.0144638
0.0142692
0.014082
0.0139137
0.0137569
0.013605
0.0134539
0.013303
0.0131621
0.0130258
0.0128867
0.012747
0.012605
0.0124614
0.012315
0.012164
0.0120106
0.0118583
0.0117117
0.0264012
0.0259339
0.025366
0.0247364
0.0240817
0.0234106
0.0227521
0.0221004
0.021466
0.0208703
0.0202973
0.0197482
0.0192526
0.0187954
0.0183591
0.0179634
0.0176116
0.0172865
0.0169793
0.0166993
0.0164513
0.0162211
0.0160011
0.0157906
0.0155983
0.0154189
0.0152466
0.0150751
0.0149035
0.0147429
0.0145873
0.0144288
0.0142697
0.0141086
0.0139462
0.013781
0.0136112
0.0134388
0.0132673
0.0131009
0.028453
0.027985
0.0274196
0.0267938
0.0261426
0.0254742
0.0248159
0.0241621
0.0235228
0.0229184
0.0223338
0.0217704
0.0212574
0.0207799
0.0203202
0.0199006
0.0195249
0.0191766
0.0188447
0.0185393
0.0182653
0.0180117
0.0177683
0.0175346
0.0173192
0.0171169
0.0169219
0.0167304
0.0165384
0.0163578
0.0161828
0.0160047
0.0158253
0.0156453
0.015464
0.01528
0.0150912
0.0148995
0.0147084
0.0145218
0.0304995
0.03003
0.029467
0.0288452
0.0281981
0.0275331
0.0268763
0.026222
0.0255797
0.0249686
0.0243736
0.0238
0.0232728
0.0227772
0.0222999
0.0218603
0.0214624
0.0210895
0.0207336
0.0204053
0.0201072
0.0198293
0.0195638
0.0193071
0.0190693
0.0188453
0.0186278
0.018416
0.0182039
0.0180022
0.0178081
0.0176109
0.0174121
0.017213
0.0170125
0.0168092
0.0166011
0.0163899
0.0161789
0.015972
0.0325375
0.0320684
0.0315085
0.0308912
0.0302486
0.0295876
0.0289332
0.0282796
0.0276359
0.0270205
0.0264184
0.0258355
0.0252963
0.0247867
0.0242939
0.0238367
0.0234193
0.0230247
0.0226455
0.0222927
0.021971
0.0216714
0.0213835
0.0211021
0.0208429
0.0205998
0.0203617
0.0201284
0.0198971
0.0196754
0.0194607
0.0192449
0.0190271
0.0188087
0.0185888
0.0183662
0.0181386
0.0179076
0.0176766
0.017449
0.0345695
0.0341009
0.0335445
0.0329321
0.0322943
0.0316378
0.0309864
0.0303345
0.0296906
0.0290725
0.0284653
0.0278749
0.0273243
0.0268041
0.0262983
0.0258257
0.0253907
0.0249765
0.0245745
0.0242007
0.023857
0.023534
0.0232242
0.0229225
0.0226425
0.0223797
0.0221213
0.0218673
0.0216164
0.0213749
0.0211402
0.0209052
0.020668
0.0204301
0.0201907
0.0199486
0.0197013
0.0194504
0.0191991
0.0189508
0.0365963
0.0361283
0.0355756
0.0349684
0.0343358
0.033684
0.033036
0.0323864
0.0317434
0.0311238
0.0305132
0.0299174
0.0293583
0.028828
0.0283107
0.0278243
0.0273734
0.0269415
0.0265196
0.0261242
0.0257614
0.0254175
0.0250874
0.024765
0.0244644
0.0241818
0.0239033
0.0236292
0.0233588
0.0230977
0.0228433
0.022589
0.0223323
0.0220748
0.0218158
0.021554
0.021287
0.0210162
0.0207446
0.0204755
0.0386179
0.0381509
0.037602
0.0370003
0.0363734
0.0357263
0.0350821
0.0344353
0.0337938
0.0331737
0.032561
0.0319611
0.0313954
0.0308566
0.030329
0.0298301
0.0293645
0.0289168
0.0284773
0.028063
0.0276818
0.0273174
0.0269657
0.0266248
0.0263047
0.0260026
0.0257046
0.0254109
0.0251215
0.024841
0.0245671
0.0242936
0.0240175
0.0237405
0.0234618
0.0231805
0.0228938
0.0226031
0.0223113
0.0220213
0.0406345
0.0401685
0.0396236
0.0390277
0.0384079
0.0377649
0.0371245
0.036481
0.0358416
0.0352218
0.0346079
0.0340053
0.0334343
0.0328882
0.0323516
0.0318414
0.0313612
0.0308998
0.0304448
0.0300129
0.0296121
0.0292304
0.0288599
0.0285006
0.0281611
0.0278386
0.0275225
0.0272101
0.0269019
0.0266024
0.0263094
0.0260169
0.0257215
0.0254248
0.0251267
0.0248261
0.02452
0.0242095
0.0238975
0.0235868
0.042646
0.0421812
0.0416402
0.0410498
0.0404359
0.0397986
0.0391627
0.038523
0.0378864
0.0372677
0.0366537
0.0360491
0.0354739
0.0349216
0.0343773
0.0338576
0.0333657
0.0328896
0.0324207
0.0319728
0.0315548
0.0311556
0.0307669
0.0303897
0.0300317
0.0296902
0.0293559
0.0290247
0.0286978
0.0283796
0.028068
0.0277569
0.0274424
0.0271254
0.0268088
0.0264894
0.026164
0.025834
0.0255019
0.0251706
0.0446522
0.0441889
0.043652
0.0430671
0.0424589
0.0418275
0.0411967
0.0405613
0.0399279
0.0393111
0.0386979
0.0380922
0.0375138
0.0369558
0.0364047
0.0358768
0.0353763
0.0348883
0.034404
0.0339406
0.0335073
0.0330905
0.0326842
0.0322894
0.0319138
0.0315545
0.0312023
0.0308528
0.0305063
0.0301708
0.0298413
0.029512
0.029179
0.0288431
0.0285077
0.0281693
0.0278247
0.0274751
0.0271231
0.0267712
0.0466527
0.0461912
0.0456589
0.0450799
0.0444771
0.0438516
0.0432262
0.0425957
0.0419657
0.0413512
0.0407407
0.0401337
0.0395539
0.0389899
0.0384324
0.0378967
0.0373869
0.036888
0.036391
0.0359131
0.0354632
0.0350318
0.0346094
0.0341967
0.0338053
0.0334293
0.0330601
0.032693
0.0323284
0.0319753
0.031628
0.0312809
0.0309298
0.0305758
0.0302217
0.0298643
0.0295006
0.0291316
0.0287597
0.0283875
0.0486472
0.0481878
0.0476604
0.0470884
0.0464902
0.0458705
0.0452508
0.0446267
0.0439993
0.0433868
0.0427779
0.0421711
0.0415897
0.041022
0.0404592
0.0399164
0.0393978
0.0388887
0.0383803
0.0378894
0.0374252
0.0369793
0.0365416
0.0361128
0.0357056
0.0353133
0.0349276
0.0345435
0.0341617
0.0337913
0.0334265
0.0330619
0.0326933
0.0323225
0.0319494
0.0315729
0.0311902
0.0308019
0.0304105
0.0300181
0.050635
0.050178
0.0496554
0.0490891
0.0484969
0.0478835
0.0472695
0.0466507
0.0460274
0.0454176
0.0448105
0.0442046
0.0436221
0.0430516
0.0424844
0.0419353
0.0414084
0.0408897
0.0403707
0.0398681
0.0393907
0.0389312
0.0384791
0.0380354
0.0376129
0.0372048
0.0368032
0.0364027
0.0360042
0.0356171
0.0352352
0.0348535
0.0344676
0.0340793
0.0336881
0.0332934
0.0328921
0.0324849
0.0320742
0.031662
0.0526153
0.0521611
0.0516447
0.051083
0.0504968
0.0498902
0.0492825
0.0486687
0.04805
0.0474435
0.0468387
0.0462342
0.0456513
0.0450791
0.044508
0.0439529
0.0434179
0.0428897
0.0423611
0.0418477
0.0413583
0.0408859
0.0404203
0.0399625
0.0395255
0.0391022
0.0386852
0.0382689
0.0378544
0.0374511
0.0370527
0.0366542
0.0362514
0.0358458
0.035437
0.0350244
0.034605
0.0341794
0.0337498
0.0333182
0.0545873
0.0541362
0.0536245
0.0530688
0.0524893
0.05189
0.05129
0.0506806
0.0500668
0.0494643
0.0488621
0.0482597
0.0476768
0.0471046
0.0465296
0.0459685
0.0454257
0.0448873
0.0443504
0.0438271
0.0433264
0.0428421
0.0423637
0.0418926
0.0414417
0.0410039
0.0405721
0.0401408
0.039711
0.039292
0.0388776
0.0384628
0.0380434
0.037621
0.037195
0.036765
0.0363279
0.0358842
0.0354362
0.0349855
0.0565503
0.0561035
0.0555956
0.055046
0.0544737
0.053882
0.0532885
0.0526851
0.052077
0.0514801
0.0508801
0.050281
0.0496972
0.049124
0.048548
0.0479815
0.0474315
0.0468842
0.0463382
0.0458053
0.0452939
0.0447983
0.044308
0.0438244
0.0433603
0.0429085
0.0424622
0.0420168
0.0415726
0.0411387
0.0407088
0.0402782
0.0398427
0.0394038
0.0389612
0.0385142
0.0380598
0.0375986
0.0371325
0.0366633
0.0585026
0.0580592
0.0575567
0.0570141
0.0564495
0.0558667
0.0552787
0.0546814
0.0540795
0.0534869
0.0528903
0.052294
0.0517111
0.0511367
0.0505591
0.0499901
0.049434
0.0488775
0.0483229
0.0477808
0.0472595
0.0467533
0.0462519
0.0457566
0.0452801
0.0448148
0.0443537
0.0438961
0.0434384
0.0429899
0.0425451
0.0420992
0.0416481
0.0411933
0.0407344
0.0402709
0.0397998
0.0393215
0.0388379
0.0383506
0.060444
0.0600041
0.0595076
0.0589725
0.0584158
0.0578405
0.0572594
0.0566692
0.0560748
0.0554858
0.054893
0.0542993
0.0537191
0.0531432
0.052563
0.0519897
0.0514273
0.0508642
0.0503022
0.0497521
0.0492217
0.0487058
0.0481941
0.0476879
0.0471998
0.0467222
0.046248
0.0457777
0.0453068
0.0448446
0.0443853
0.0439247
0.0434585
0.0429883
0.0425138
0.0420343
0.041547
0.0410522
0.0405516
0.0400467
0.0623739
0.0619378
0.0614478
0.0609209
0.0603731
0.0598042
0.0592302
0.0586473
0.0580593
0.0574755
0.0568882
0.0562962
0.0557172
0.0551423
0.0545604
0.0539814
0.0534113
0.052843
0.0522751
0.0517179
0.0511794
0.0506546
0.0501335
0.0496174
0.0491185
0.0486293
0.0481432
0.0476606
0.0471771
0.0467016
0.0462285
0.0457535
0.0452727
0.0447878
0.0442983
0.0438036
0.0433007
0.0427898
0.0422728
0.0417509
0.0642915
0.0638595
0.0633764
0.0628587
0.0623177
0.0617566
0.0611904
0.0606164
0.0600338
0.0594554
0.0588724
0.0582837
0.0577057
0.0571299
0.056546
0.0559642
0.055388
0.0548142
0.0542407
0.0536772
0.0531314
0.0525987
0.052069
0.0515438
0.051035
0.0505351
0.0500378
0.0495438
0.0490483
0.0485601
0.0480737
0.0475846
0.0470897
0.0465909
0.0460872
0.0455778
0.0450599
0.0445337
0.0440007
0.0434625
0.0661959
0.0657684
0.0652922
0.0647823
0.0642494
0.0636969
0.063139
0.0625726
0.0619974
0.0614258
0.0608465
0.0602621
0.0596854
0.0591074
0.0585205
0.0579336
0.0573541
0.0567761
0.056198
0.0556291
0.0550769
0.054537
0.0539997
0.0534662
0.0529483
0.0524386
0.0519309
0.051426
0.0509192
0.050419
0.0499198
0.0494166
0.048909
0.0483972
0.0478799
0.0473564
0.0468241
0.046283
0.0457348
0.0451809
0.0680861
0.0676634
0.0671955
0.0666925
0.0661681
0.0656249
0.0650764
0.0645165
0.0639495
0.0633826
0.0628091
0.062227
0.0616513
0.0610738
0.0604842
0.0598927
0.0593095
0.0587279
0.058146
0.0575726
0.0570149
0.0564688
0.0559246
0.0553837
0.0548575
0.0543387
0.0538214
0.0533065
0.0527891
0.0522776
0.0517664
0.0512507
0.0507306
0.050206
0.0496756
0.0491387
0.0485924
0.0480372
0.0474744
0.0469054
0.0699612
0.0695432
0.0690825
0.0685879
0.0680729
0.0675401
0.0669989
0.0664466
0.0658865
0.0653255
0.0647567
0.0641787
0.0636039
0.0630248
0.0624309
0.0618381
0.0612528
0.0606687
0.0600839
0.0595069
0.0589445
0.058393
0.0578428
0.0572954
0.0567617
0.0562347
0.0557085
0.0551842
0.054657
0.0541349
0.0536126
0.0530853
0.0525532
0.0520165
0.0514736
0.0509237
0.0503642
0.0497953
0.0492186
0.0486354
0.0718205
0.071407
0.0709534
0.070468
0.0699634
0.0694388
0.0689065
0.0683634
0.0678096
0.0672553
0.0666903
0.0661135
0.0655385
0.0649568
0.0643629
0.0637697
0.0631832
0.0625975
0.0620107
0.061431
0.060865
0.0603089
0.0597536
0.0592004
0.0586601
0.0581255
0.0575912
0.0570582
0.0565218
0.0559899
0.0554572
0.0549191
0.0543759
0.0538277
0.0532729
0.0527107
0.0521386
0.0515568
0.0509669
0.0503703
0.0736632
0.0732542
0.0728075
0.0723322
0.0718358
0.0713208
0.0707986
0.0702631
0.0697175
0.0691683
0.0686058
0.0680322
0.0674571
0.0668737
0.0662799
0.0656869
0.0651001
0.0645137
0.0639259
0.0633444
0.0627755
0.0622157
0.0616562
0.061098
0.0605517
0.0600103
0.0594686
0.0589276
0.0583825
0.0578416
0.0572994
0.0567514
0.0561978
0.0556388
0.0550727
0.0544989
0.0539148
0.0533208
0.0527184
0.0521094
0.0754886
0.0750838
0.0746435
0.0741766
0.0736899
0.0731857
0.0726719
0.0721457
0.0716066
0.0710609
0.0705028
0.0699309
0.0693542
0.0687727
0.0681806
0.0675889
0.0670028
0.0664166
0.0658286
0.0652462
0.0646754
0.0641128
0.0635497
0.0629873
0.0624358
0.0618883
0.0613399
0.0607915
0.060238
0.0596892
0.0591383
0.0585811
0.0580179
0.0574488
0.0568722
0.0562874
0.0556921
0.0550865
0.0544725
0.0538521
0.0772961
0.0768953
0.0764609
0.0760018
0.0755254
0.0750301
0.0745264
0.0740079
0.073474
0.0729334
0.0723783
0.0718064
0.0712328
0.070654
0.0700647
0.0694753
0.0688907
0.0683055
0.0677183
0.0671359
0.0665641
0.0659994
0.0654335
0.0648675
0.0643115
0.0637587
0.0632043
0.0626493
0.0620886
0.0615322
0.0609732
0.0604076
0.0598355
0.0592571
0.0586706
0.0580754
0.0574694
0.0568531
0.0562284
0.0555979
0.0790849
0.0786881
0.0782591
0.0778069
0.0773388
0.0768539
0.076359
0.0758473
0.0753207
0.0747827
0.0742295
0.0736624
0.0730927
0.0725176
0.0719319
0.0713455
0.0707632
0.0701799
0.0695941
0.0690128
0.0684413
0.067875
0.0673067
0.0667378
0.0661779
0.0656205
0.0650608
0.0645
0.0639329
0.0633695
0.0628031
0.0622298
0.06165
0.0610628
0.0604668
0.0598619
0.059246
0.0586197
0.0579853
0.0573459
0.0808545
0.0804615
0.0800378
0.0795918
0.0791308
0.0786539
0.0781671
0.0776646
0.077145
0.0766106
0.0760614
0.0754991
0.074934
0.0743632
0.0737818
0.0731992
0.0726198
0.0720391
0.0714556
0.070876
0.0703067
0.0697386
0.0691683
0.0685972
0.0680342
0.0674728
0.0669086
0.0663425
0.0657698
0.0652001
0.064627
0.0640469
0.0634611
0.0628649
0.0622599
0.0616458
0.0610207
0.0603854
0.0597424
0.0590957
0.082604
0.0822151
0.0817965
0.0813565
0.080902
0.0804321
0.0799525
0.0794574
0.0789449
0.0784164
0.0778729
0.0773162
0.0767563
0.0761905
0.075614
0.0750357
0.07446
0.0738824
0.0733017
0.0727244
0.0721564
0.0715883
0.0710173
0.0704448
0.0698794
0.0693148
0.0687466
0.068176
0.0675982
0.0670229
0.0664438
0.0658573
0.0652649
0.0646613
0.0640484
0.0634261
0.0627927
0.0621492
0.0614989
0.0608466
0.0843328
0.083948
0.0835347
0.0831007
0.0826524
0.0821892
0.0817163
0.0812281
0.0807226
0.0802008
0.0796637
0.0791134
0.0785594
0.077999
0.0774279
0.0768546
0.0762831
0.0757093
0.0751319
0.0745573
0.073991
0.0734236
0.0728528
0.0722799
0.0717128
0.0711454
0.0705739
0.0699992
0.0694171
0.0688368
0.0682523
0.0676601
0.0670616
0.0664514
0.0658315
0.0652018
0.064561
0.0639104
0.0632539
0.0625979
0.08604
0.0856595
0.0852516
0.0848236
0.0843817
0.0839251
0.0834587
0.0829774
0.0824789
0.081964
0.0814338
0.0808904
0.0803427
0.0797883
0.0792231
0.0786552
0.0780885
0.077519
0.0769457
0.0763744
0.0758102
0.0752441
0.0746742
0.0741019
0.0735335
0.0729639
0.0723895
0.071811
0.0712252
0.0706408
0.0700516
0.0694545
0.0688505
0.0682345
0.0676083
0.0669721
0.0663247
0.065668
0.0650066
0.0643489
0.0877249
0.0873489
0.0869465
0.0865247
0.0860892
0.0856393
0.0851796
0.0847052
0.0842137
0.083706
0.083183
0.0826467
0.0821057
0.0815578
0.0809989
0.0804369
0.0798754
0.0793108
0.0787422
0.0781753
0.0776134
0.077049
0.0764806
0.0759106
0.0753405
0.074769
0.0741924
0.0736097
0.0730215
0.0724339
0.0718409
0.0712396
0.0706308
0.0700097
0.0693781
0.0687361
0.068083
0.0674211
0.0667563
0.066099
0.0893866
0.0890154
0.0886187
0.0882032
0.0877743
0.0873312
0.0868783
0.0864109
0.0859267
0.0854263
0.0849107
0.0843819
0.083848
0.0833068
0.0827546
0.0821989
0.0816431
0.0810839
0.0805207
0.0799599
0.0793998
0.0788371
0.0782703
0.0777018
0.0771316
0.0765593
0.0759823
0.0753964
0.0748057
0.0742154
0.0736193
0.0730146
0.0724019
0.0717764
0.0711398
0.0704928
0.0698348
0.0691688
0.0685019
0.0678473
0.0910244
0.0906582
0.0902674
0.0898584
0.0894362
0.0890001
0.0885542
0.088094
0.0876172
0.0871243
0.0866165
0.0860954
0.0855688
0.0850346
0.0844896
0.0839405
0.0833909
0.0828375
0.0822799
0.081724
0.0811674
0.0806073
0.0800427
0.0794757
0.0789062
0.0783334
0.0777543
0.0771682
0.0765763
0.0759842
0.075386
0.0747789
0.0741628
0.0735334
0.0728926
0.0722412
0.0715792
0.0709101
0.0702425
0.0695929
0.0926376
0.0922766
0.0918919
0.0914896
0.0910743
0.0906453
0.0902066
0.0897537
0.0892846
0.0887995
0.0882995
0.0877864
0.0872674
0.0867406
0.086203
0.085661
0.085118
0.084571
0.0840193
0.0834684
0.0829156
0.0823588
0.0817971
0.0812321
0.0806636
0.080091
0.0795115
0.0789251
0.0783327
0.0777394
0.0771399
0.0765324
0.0759126
0.0752797
0.0746353
0.0739803
0.073315
0.0726438
0.071977
0.0713348
0.0942254
0.0938698
0.0934915
0.0930959
0.0926877
0.0922661
0.0918348
0.0913895
0.0909282
0.090451
0.0899592
0.0894542
0.0889431
0.088424
0.0878941
0.0873596
0.0868237
0.0862836
0.0857388
0.0851927
0.084644
0.084091
0.083533
0.0829701
0.082403
0.0818312
0.0812522
0.0806661
0.0800737
0.0794801
0.0788796
0.078271
0.0776492
0.0770137
0.0763667
0.075709
0.0750413
0.0743691
0.0737044
0.0730719
0.0957873
0.0954373
0.0950654
0.0946768
0.0942759
0.0938618
0.093438
0.0930005
0.0925473
0.0920783
0.0915948
0.0910983
0.0905952
0.0900841
0.0895622
0.0890355
0.0885072
0.0879747
0.0874382
0.0868962
0.0863516
0.0858027
0.0852501
0.0846888
0.0841232
0.0835528
0.082975
0.0823901
0.0817987
0.0812052
0.0806042
0.0799947
0.0793716
0.0787347
0.0780858
0.0774262
0.0767571
0.0760848
0.0754236
0.0748031
0.0973226
0.0969784
0.0966131
0.0962317
0.0958381
0.0954317
0.0950156
0.0945861
0.0941412
0.0936807
0.0932057
0.0927177
0.092223
0.0917201
0.0912065
0.0906881
0.0901677
0.0896434
0.0891135
0.0885769
0.0880369
0.0874924
0.0869439
0.0863859
0.0858229
0.0852544
0.0846788
0.0840961
0.0835069
0.082914
0.0823129
0.081703
0.0810794
0.0804416
0.0797917
0.079131
0.0784613
0.0777898
0.0771335
0.0765271
0.0988307
0.0984926
0.098134
0.0977598
0.0973737
0.0969751
0.096567
0.0961457
0.0957094
0.0952575
0.0947912
0.094312
0.0938258
0.0933313
0.0928264
0.0923164
0.0918045
0.0912897
0.0907653
0.0902342
0.0896992
0.0891593
0.088615
0.0880609
0.0875012
0.086935
0.0863628
0.0857834
0.0851983
0.0846056
0.0840043
0.0833949
0.0827715
0.0821338
0.0814836
0.0808226
0.0801529
0.0794832
0.0788328
0.0782424
0.100311
0.0999792
0.0996275
0.0992608
0.0988823
0.0984917
0.0980916
0.0976787
0.0972512
0.0968084
0.0963509
0.0958805
0.0954029
0.0949171
0.0944211
0.0939199
0.0934166
0.0929097
0.0923922
0.0918672
0.0913379
0.0908029
0.0902627
0.0897132
0.0891578
0.0885954
0.0880265
0.0874511
0.0868689
0.0862781
0.0856782
0.0850699
0.0844474
0.0838103
0.0831606
0.0824999
0.0818311
0.081164
0.0805204
0.0799478
0.101764
0.101438
0.101093
0.100734
0.100363
0.0999807
0.0995888
0.0991845
0.0987662
0.098333
0.0978841
0.0974225
0.0969537
0.0964768
0.09599
0.0954981
0.0950038
0.0945044
0.0939939
0.0934756
0.0929524
0.0924227
0.0918859
0.0913425
0.0907922
0.0902345
0.0896705
0.0890992
0.0885199
0.0879315
0.0873335
0.086727
0.0861061
0.0854704
0.0848218
0.0841622
0.0834949
0.0828309
0.0821951
0.0816416
0.103188
0.102868
0.102531
0.102179
0.101816
0.101442
0.101058
0.100662
0.100253
0.0998313
0.0993902
0.0989372
0.0984775
0.0980098
0.0975326
0.0970505
0.0965666
0.0960735
0.0955699
0.0950587
0.0945424
0.0940187
0.0934871
0.092949
0.0924036
0.0918514
0.0912944
0.0907273
0.0901504
0.0895645
0.0889694
0.0883655
0.0877469
0.0871133
0.0864664
0.0858085
0.0851434
0.0844832
0.0838558
0.0833225
0.104583
0.10427
0.10394
0.103596
0.103241
0.102874
0.102499
0.102112
0.101712
0.101299
0.100868
0.100424
0.0999737
0.0995156
0.0990483
0.0985762
0.0981008
0.0976153
0.0971193
0.096616
0.0961075
0.0955903
0.0950644
0.0945317
0.0939908
0.0934447
0.0928937
0.0923315
0.0917581
0.0911761
0.0905852
0.0899847
0.0893691
0.0887381
0.0880936
0.0874378
0.0867754
0.0861196
0.0855011
0.0849888
0.105949
0.105643
0.10532
0.104984
0.104637
0.104278
0.103911
0.103533
0.103142
0.102739
0.102316
0.101882
0.101442
0.100994
0.100537
0.100076
0.0996075
0.0991295
0.0986416
0.0981468
0.097648
0.0971366
0.0966166
0.0960897
0.0955546
0.0950145
0.0944693
0.0939126
0.0933441
0.0927668
0.0921808
0.0915841
0.0909719
0.0903439
0.0897023
0.0890494
0.0883902
0.0877391
0.0871299
0.0866392
0.107286
0.106986
0.106671
0.106342
0.106003
0.105653
0.105295
0.104925
0.104543
0.104149
0.103736
0.103312
0.102882
0.102444
0.101997
0.101545
0.101085
0.100616
0.100136
0.0996501
0.0991598
0.0986558
0.0981426
0.0976221
0.0970936
0.0965601
0.0960211
0.0954703
0.0949075
0.0943358
0.0937564
0.093163
0.0925542
0.0919298
0.0912916
0.0906421
0.0899867
0.0893407
0.0887412
0.0882723
0.108593
0.1083
0.107992
0.107672
0.107341
0.106999
0.106649
0.106288
0.105915
0.10553
0.105127
0.104713
0.104293
0.103866
0.103431
0.102986
0.102534
0.102073
0.101603
0.101126
0.100644
0.100148
0.099642
0.0991276
0.0986072
0.098081
0.0975487
0.0970042
0.0964475
0.0958815
0.0953078
0.0947193
0.0941149
0.0934948
0.0928607
0.0922151
0.0915639
0.0909235
0.0903337
0.0898867
0.10987
0.109585
0.109284
0.108972
0.108649
0.108316
0.107974
0.107622
0.107258
0.106882
0.106489
0.106085
0.105675
0.105259
0.104833
0.104397
0.103953
0.103501
0.103041
0.102576
0.102101
0.101612
0.101115
0.100608
0.100096
0.0995772
0.0990518
0.0985138
0.0979633
0.0974036
0.0968356
0.0962524
0.0956532
0.095038
0.0944085
0.0937676
0.0931211
0.0924866
0.0919066
0.0914812
0.111118
0.11084
0.110547
0.110242
0.109928
0.109603
0.10927
0.108926
0.108572
0.108206
0.107822
0.107428
0.107027
0.106621
0.106204
0.105777
0.105343
0.104901
0.104451
0.103995
0.103529
0.103049
0.10256
0.102062
0.101559
0.101049
0.10053
0.0999982
0.0994543
0.0989015
0.0983395
0.097762
0.0971683
0.0965586
0.0959345
0.0952987
0.0946575
0.0940292
0.0934589
0.0930546
0.112337
0.112065
0.11178
0.111483
0.111177
0.11086
0.110536
0.110201
0.109856
0.1095
0.109126
0.108742
0.10835
0.107952
0.107545
0.107128
0.106704
0.106271
0.105833
0.105385
0.104927
0.104459
0.103978
0.10349
0.102997
0.102495
0.101982
0.101456
0.10092
0.100375
0.0998188
0.0992472
0.0986596
0.098056
0.0974378
0.0968078
0.0961724
0.0955505
0.0949898
0.0946061
0.113525
0.113261
0.112983
0.112694
0.112396
0.112088
0.111773
0.111447
0.111111
0.110764
0.110402
0.110026
0.109643
0.109253
0.108856
0.10845
0.108035
0.107612
0.107184
0.106745
0.106296
0.105838
0.105367
0.10489
0.104405
0.103911
0.103405
0.102887
0.102358
0.101821
0.101272
0.100707
0.100126
0.0995296
0.0989181
0.0982944
0.0976652
0.09705
0.0964988
0.0961348
0.114684
0.114427
0.114157
0.113876
0.113586
0.113287
0.11298
0.112663
0.112336
0.112
0.111649
0.111282
0.110908
0.110527
0.110139
0.109742
0.109337
0.108924
0.108504
0.108075
0.107636
0.107187
0.106727
0.10626
0.105783
0.105297
0.104799
0.104289
0.103768
0.10324
0.102698
0.102142
0.101569
0.100979
0.100375
0.099758
0.0991355
0.0985273
0.0979852
0.0976401
0.115814
0.115564
0.115301
0.115028
0.114746
0.114456
0.114157
0.113849
0.113532
0.113205
0.112864
0.112508
0.112143
0.111771
0.111393
0.111006
0.11061
0.110206
0.109795
0.109375
0.108947
0.108508
0.108058
0.1076
0.107133
0.106655
0.106165
0.105664
0.105152
0.104632
0.104099
0.103551
0.102986
0.102404
0.101808
0.101198
0.100583
0.0999819
0.0994487
0.0991213
0.116914
0.116671
0.116416
0.116151
0.115878
0.115595
0.115305
0.115006
0.114698
0.11438
0.11405
0.113703
0.113349
0.112987
0.112618
0.112241
0.111855
0.11146
0.111057
0.110647
0.110229
0.1098
0.109361
0.108912
0.108454
0.107985
0.107504
0.107012
0.106509
0.105998
0.105474
0.104934
0.104378
0.103805
0.103217
0.102615
0.102007
0.101413
0.100889
0.100578
0.117985
0.117749
0.117502
0.117245
0.11698
0.116706
0.116424
0.116134
0.115835
0.115527
0.115206
0.11487
0.114526
0.114173
0.113814
0.113447
0.11307
0.112685
0.112291
0.111891
0.111482
0.111063
0.110634
0.110195
0.109746
0.109287
0.108816
0.108333
0.107839
0.107338
0.106823
0.106293
0.105746
0.105182
0.104602
0.104009
0.103408
0.102822
0.102305
0.10201
0.119027
0.118799
0.118559
0.11831
0.118053
0.117787
0.117515
0.117233
0.116943
0.116644
0.116334
0.116008
0.115674
0.115331
0.114981
0.114623
0.114257
0.113882
0.113497
0.113107
0.112708
0.112299
0.111879
0.111449
0.111011
0.110561
0.1101
0.109628
0.109144
0.108652
0.108147
0.107626
0.107088
0.106533
0.105963
0.105378
0.104786
0.104207
0.103698
0.103416
0.120041
0.11982
0.119588
0.119347
0.119098
0.11884
0.118576
0.118303
0.118022
0.117733
0.117433
0.117118
0.116794
0.11646
0.116119
0.115772
0.115416
0.115051
0.114676
0.114293
0.113905
0.113507
0.113097
0.112677
0.112247
0.111808
0.111357
0.110895
0.110422
0.109941
0.109445
0.108934
0.108406
0.10786
0.107299
0.106723
0.106139
0.105568
0.105066
0.104797
0.121027
0.120813
0.120588
0.120355
0.120114
0.119865
0.119609
0.119345
0.119073
0.118793
0.118503
0.118201
0.117885
0.117561
0.117229
0.116892
0.116546
0.116191
0.115826
0.115454
0.115075
0.114687
0.114287
0.113877
0.113458
0.113028
0.112588
0.112136
0.111676
0.111204
0.110718
0.110216
0.109698
0.109162
0.10861
0.108044
0.107469
0.106905
0.10641
0.106152
0.121985
0.121778
0.12156
0.121335
0.121102
0.120862
0.120614
0.120359
0.120096
0.119825
0.119545
0.119253
0.118948
0.118634
0.118312
0.117984
0.117649
0.117304
0.116949
0.116586
0.116217
0.115839
0.11545
0.115051
0.114641
0.114222
0.113792
0.113352
0.112903
0.112441
0.111965
0.111473
0.110965
0.110439
0.109897
0.10934
0.108774
0.108218
0.10773
0.107481
0.122915
0.122715
0.122505
0.122288
0.122063
0.12183
0.121591
0.121345
0.121091
0.120829
0.120558
0.120277
0.119983
0.119679
0.119367
0.119049
0.118723
0.118388
0.118044
0.117692
0.117332
0.116964
0.116586
0.116197
0.115798
0.115389
0.11497
0.114541
0.114103
0.113652
0.113186
0.112704
0.112206
0.111691
0.111159
0.110612
0.110054
0.109506
0.109025
0.108784
0.123818
0.123625
0.123423
0.123213
0.122996
0.122772
0.122541
0.122303
0.122058
0.121806
0.121545
0.121274
0.12099
0.120697
0.120394
0.120085
0.11977
0.119446
0.119112
0.11877
0.11842
0.118062
0.117694
0.117316
0.116928
0.11653
0.116122
0.115706
0.115278
0.114836
0.114381
0.11391
0.113422
0.112917
0.112396
0.111858
0.111311
0.11077
0.110295
0.110061
0.124695
0.124509
0.124314
0.124112
0.123903
0.123687
0.123465
0.123235
0.122998
0.122755
0.122503
0.122243
0.121972
0.121688
0.121395
0.121095
0.12079
0.120476
0.120153
0.119822
0.119482
0.119133
0.118776
0.118409
0.118031
0.117644
0.117247
0.116842
0.116425
0.115995
0.11555
0.11509
0.114613
0.114119
0.113607
0.11308
0.112542
0.112009
0.11154
0.111311
0.125546
0.125367
0.125179
0.124984
0.124783
0.124575
0.124361
0.12414
0.123912
0.123678