/*--------------------------------*- C++ -*----------------------------------*\
| =========                 |                                                 |
| \\      /  F ield         | OpenFOAM: The Open Source CFD Toolbox           |
|  \\    /   O peration     | Version:  3.0.1                                 |
|   \\  /    A nd           | Web:      www.OpenFOAM.org                      |
|    \\/     M anipulation  |                                                 |
\*---------------------------------------------------------------------------*/
FoamFile
{
    version     2.0;
    format      ascii;
    class       volScalarField;
    location    "500";
    object      p;
}
// * * * * * * * * * * * * * * * * * * * * * * * * * * * * * * * * * * * * * //

dimensions      [0 2 -2 0 0 0 0];

internalField   nonuniform List<scalar> 
58000
(
0.0474978
-0.225153
-0.44568
-0.581853
-0.663241
-0.721426
-0.761833
-0.78902
-0.806618
-0.814227
-0.815765
-0.813154
-0.806046
-0.796833
-0.787748
-0.778968
-0.769969
-0.761667
-0.754189
-0.746967
-0.739405
-0.732307
-0.725786
-0.719402
-0.712597
-0.70551
-0.698905
-0.692563
-0.686124
-0.679323
-0.672371
-0.665843
-0.65957
-0.653279
-0.6468
-0.638923
-0.627442
-0.615343
-0.606064
-0.599361
0.268288
0.153509
0.0242906
-0.109573
-0.230746
-0.335337
-0.422377
-0.499809
-0.563072
-0.612228
-0.650945
-0.678708
-0.696618
-0.708216
-0.714225
-0.71551
-0.714185
-0.711363
-0.707429
-0.702686
-0.697544
-0.692297
-0.686808
-0.681118
-0.675153
-0.669361
-0.663495
-0.65749
-0.651325
-0.644983
-0.638863
-0.632719
-0.626453
-0.619969
-0.613201
-0.606256
-0.598544
-0.590735
-0.584829
-0.581865
0.195271
0.111126
0.0220505
-0.0734883
-0.165938
-0.25329
-0.33252
-0.402362
-0.46485
-0.516183
-0.55853
-0.593042
-0.618544
-0.636739
-0.649911
-0.65839
-0.662984
-0.665027
-0.665372
-0.664387
-0.662316
-0.659451
-0.656043
-0.652256
-0.648153
-0.643723
-0.638977
-0.634026
-0.6289
-0.623678
-0.61831
-0.612745
-0.607038
-0.60117
-0.595179
-0.589049
-0.582612
-0.576051
-0.56994
-0.564219
0.194986
0.140819
0.08011
0.0101982
-0.0639455
-0.139579
-0.21242
-0.280798
-0.344387
-0.399674
-0.448271
-0.49031
-0.523954
-0.550583
-0.572152
-0.588279
-0.599478
-0.607297
-0.612636
-0.61576
-0.61702
-0.61697
-0.615975
-0.614194
-0.611716
-0.608698
-0.605233
-0.601396
-0.597204
-0.592744
-0.588101
-0.583217
-0.578111
-0.572773
-0.567254
-0.56166
-0.555971
-0.550213
-0.544578
-0.539125
0.167106
0.127512
0.0847324
0.034592
-0.0208874
-0.0807464
-0.1422
-0.202409
-0.261452
-0.315123
-0.36409
-0.408435
-0.445782
-0.476697
-0.50313
-0.524397
-0.540441
-0.552784
-0.562349
-0.56927
-0.57377
-0.576497
-0.57798
-0.578399
-0.577847
-0.576421
-0.574375
-0.57182
-0.568788
-0.565388
-0.561628
-0.557547
-0.553187
-0.548555
-0.543733
-0.538785
-0.533721
-0.528527
-0.523226
-0.517802
0.149914
0.119036
0.0863395
0.0481916
0.00552592
-0.0416668
-0.092169
-0.143363
-0.195685
-0.245213
-0.292037
-0.336043
-0.374682
-0.407952
-0.437516
-0.462412
-0.482202
-0.498278
-0.511469
-0.521751
-0.529236
-0.534632
-0.538536
-0.541113
-0.542424
-0.542594
-0.541992
-0.540738
-0.538867
-0.536474
-0.533595
-0.530326
-0.526713
-0.522767
-0.518564
-0.514179
-0.509643
-0.504928
-0.500013
-0.494922
0.133327
0.108317
0.0823762
0.0523257
0.0187093
-0.0188475
-0.0601314
-0.102871
-0.148008
-0.192148
-0.235079
-0.276732
-0.314636
-0.348301
-0.37914
-0.40607
-0.428303
-0.447041
-0.463002
-0.476027
-0.486078
-0.493838
-0.499949
-0.50455
-0.507672
-0.509417
-0.510249
-0.510301
-0.509612
-0.508272
-0.506313
-0.503888
-0.501052
-0.497821
-0.494271
-0.490469
-0.486462
-0.48222
-0.477706
-0.472953
0.119525
0.0985021
0.0770705
0.0525028
0.0251988
-0.00531312
-0.0393518
-0.0750027
-0.113537
-0.152172
-0.190591
-0.228846
-0.264725
-0.297427
-0.328142
-0.355777
-0.379299
-0.399699
-0.41757
-0.432638
-0.444721
-0.454442
-0.462444
-0.468828
-0.473588
-0.476791
-0.478971
-0.480263
-0.480705
-0.480381
-0.479318
-0.47772
-0.475645
-0.473112
-0.470195
-0.466955
-0.463459
-0.459681
-0.455579
-0.451213
0.107605
0.0895134
0.0713115
0.05064
0.0278535
0.00249816
-0.0259856
-0.0559616
-0.0888587
-0.122443
-0.156397
-0.190902
-0.224082
-0.254975
-0.284601
-0.311943
-0.335813
-0.357
-0.37598
-0.392404
-0.405969
-0.417205
-0.42673
-0.434596
-0.440769
-0.445265
-0.448662
-0.451089
-0.452581
-0.453213
-0.453004
-0.452198
-0.450855
-0.448996
-0.446693
-0.444002
-0.441004
-0.437682
-0.433991
-0.430017
0.0973331
0.0814626
0.0656593
0.047861
0.0284009
0.00687772
-0.0173512
-0.0428634
-0.0711231
-0.100333
-0.130209
-0.161044
-0.1913
-0.219966
-0.247928
-0.27429
-0.297805
-0.319087
-0.338509
-0.355683
-0.37021
-0.382518
-0.393182
-0.402206
-0.409535
-0.415123
-0.41957
-0.422995
-0.425423
-0.426922
-0.4275
-0.427428
-0.426769
-0.425543
-0.423819
-0.42165
-0.419127
-0.416241
-0.41295
-0.409365
0.0884118
0.0742847
0.060328
0.0447222
0.0277852
0.00917229
-0.0117649
-0.0337687
-0.0582639
-0.0837897
-0.110105
-0.137572
-0.164953
-0.191263
-0.217281
-0.242254
-0.264941
-0.285816
-0.305166
-0.322589
-0.337625
-0.350605
-0.362048
-0.371915
-0.380134
-0.386601
-0.391916
-0.396185
-0.399418
-0.40168
-0.40296
-0.403553
-0.403516
-0.40287
-0.401682
-0.399997
-0.39792
-0.395447
-0.392538
-0.389328
0.0806188
0.0678959
0.0554019
0.0415186
0.0265494
0.0102001
-0.00814993
-0.0273762
-0.0488231
-0.0712829
-0.0945544
-0.119038
-0.143744
-0.167751
-0.191754
-0.215133
-0.236704
-0.256832
-0.275737
-0.293025
-0.308204
-0.321512
-0.333418
-0.343841
-0.352701
-0.359835
-0.365834
-0.370786
-0.374688
-0.3776
-0.379491
-0.380667
-0.381182
-0.381055
-0.380351
-0.37911
-0.377443
-0.375353
-0.3728
-0.369943
0.0737717
0.0622058
0.0508996
0.0384037
0.0250071
0.0104577
-0.00582321
-0.0228239
-0.0417902
-0.0617048
-0.0823992
-0.104288
-0.126584
-0.148439
-0.170476
-0.1922
-0.212504
-0.231677
-0.24989
-0.266768
-0.281804
-0.295166
-0.307268
-0.318
-0.327276
-0.334885
-0.341394
-0.346873
-0.35131
-0.354756
-0.357161
-0.358835
-0.359828
-0.360156
-0.359881
-0.359038
-0.357742
-0.355999
-0.353774
-0.351245
0.067724
0.0571294
0.0468079
0.0354542
0.0233413
0.0102523
-0.00434482
-0.0195353
-0.0364633
-0.0542585
-0.0727768
-0.0924298
-0.112587
-0.13248
-0.152671
-0.17277
-0.191761
-0.209873
-0.22724
-0.243518
-0.258207
-0.27141
-0.283496
-0.294332
-0.30383
-0.311744
-0.318607
-0.32447
-0.329314
-0.333182
-0.336006
-0.338093
-0.33949
-0.340208
-0.340306
-0.339813
-0.338846
-0.337414
-0.335484
-0.333255
0.0623566
0.0525912
0.0431007
0.0327046
0.0216594
0.00977774
-0.00342639
-0.0171228
-0.0323568
-0.0483747
-0.0650517
-0.0827834
-0.10106
-0.119192
-0.137688
-0.156243
-0.173937
-0.190951
-0.207395
-0.222956
-0.237153
-0.250044
-0.261952
-0.272728
-0.282287
-0.290357
-0.297437
-0.303561
-0.308695
-0.312881
-0.316034
-0.318455
-0.320182
-0.321227
-0.321642
-0.321451
-0.32077
-0.319612
-0.317945
-0.315985
0.0575722
0.0485243
0.0397462
0.0301657
0.0200233
0.00915589
-0.00287827
-0.0153243
-0.0291347
-0.0436493
-0.0587597
-0.0748389
-0.0914687
-0.108033
-0.124995
-0.142112
-0.158558
-0.174484
-0.189977
-0.204758
-0.218372
-0.230843
-0.242453
-0.253045
-0.262538
-0.270645
-0.277825
-0.284098
-0.289422
-0.293833
-0.297233
-0.299911
-0.301902
-0.303212
-0.30389
-0.303954
-0.303519
-0.302597
-0.301161
-0.299439
0.0532902
0.0448701
0.0367108
0.0278351
0.0184671
0.00846453
-0.00257358
-0.0139596
-0.0265601
-0.039792
-0.0535597
-0.0682109
-0.0833997
-0.0985748
-0.114154
-0.129951
-0.145222
-0.160096
-0.174645
-0.188622
-0.201602
-0.213582
-0.22481
-0.235127
-0.244459
-0.252504
-0.259687
-0.266016
-0.271442
-0.275995
-0.279569
-0.282439
-0.28463
-0.286149
-0.287039
-0.287314
-0.287085
-0.286365
-0.285128
-0.283615
0.0494433
0.0415783
0.0339628
0.0257036
0.0170084
0.00775272
-0.00242669
-0.012903
-0.0244643
-0.0365914
-0.0491995
-0.0626102
-0.0765347
-0.0904786
-0.104819
-0.119412
-0.133591
-0.147466
-0.1611
-0.174275
-0.186598
-0.198046
-0.208839
-0.218816
-0.22791
-0.235819
-0.242928
-0.249237
-0.254691
-0.259317
-0.263
-0.265999
-0.268337
-0.270013
-0.27107
-0.271515
-0.271455
-0.270904
-0.269837
-0.268504
0.0459759
0.0386061
0.0314731
0.0237585
0.0156546
0.00705148
-0.00237947
-0.0120664
-0.0227259
-0.0338933
-0.0454924
-0.0578193
-0.0706299
-0.0834802
-0.0967115
-0.110211
-0.123382
-0.136322
-0.149084
-0.161478
-0.173139
-0.184035
-0.194358
-0.203953
-0.212757
-0.220471
-0.227445
-0.233673
-0.239096
-0.243735
-0.247472
-0.25055
-0.252984
-0.254773
-0.255955
-0.256533
-0.256608
-0.256195
-0.255271
-0.254092
0.0428413
0.0359165
0.0292154
0.0219864
0.014407
0.00638018
-0.00239191
-0.0113871
-0.0212568
-0.0315831
-0.0422978
-0.0536717
-0.0654966
-0.077373
-0.0896094
-0.102118
-0.114365
-0.126434
-0.138374
-0.150016
-0.161027
-0.171366
-0.181204
-0.19039
-0.198868
-0.206344
-0.213139
-0.219238
-0.22458
-0.229183
-0.232928
-0.23604
-0.238529
-0.240391
-0.241661
-0.242339
-0.24252
-0.242219
-0.241412
-0.240363
0.0399995
0.0334778
0.0271662
0.0203735
0.0132636
0.00575026
-0.00243669
-0.0108203
-0.0199923
-0.029576
-0.0395096
-0.0500405
-0.060989
-0.0719954
-0.0833381
-0.0949489
-0.106349
-0.117613
-0.128783
-0.139709
-0.15009
-0.15988
-0.169229
-0.177991
-0.186119
-0.193329
-0.19991
-0.205844
-0.211067
-0.215596
-0.21931
-0.222417
-0.224925
-0.226827
-0.228154
-0.228903
-0.229164
-0.228948
-0.228237
-0.227296
0.0374163
0.0312621
0.0253045
0.0189068
0.0122199
0.00516739
-0.00249569
-0.0103339
-0.0188852
-0.0278082
-0.0370473
-0.0468278
-0.0569933
-0.0672196
-0.0777579
-0.0885543
-0.0991791
-0.1097
-0.120151
-0.130403
-0.140179
-0.149432
-0.158297
-0.166632
-0.174398
-0.181321
-0.187665
-0.193406
-0.198481
-0.202905
-0.206557
-0.20963
-0.212126
-0.214039
-0.215396
-0.216192
-0.216508
-0.216358
-0.215723
-0.214869
0.0350626
0.0292451
0.0236111
0.0175732
0.0112701
0.00463419
-0.00255664
-0.0099051
-0.0179
-0.0262314
-0.0348487
-0.0439571
-0.0534196
-0.0629431
-0.0727549
-0.0828118
-0.0927269
-0.10256
-0.112343
-0.121961
-0.131163
-0.139899
-0.148289
-0.156202
-0.1636
-0.170226
-0.176317
-0.181846
-0.186752
-0.191047
-0.194612
-0.197625
-0.200086
-0.201986
-0.20335
-0.20417
-0.204522
-0.204419
-0.203842
-0.203059
0.0329134
0.0274058
0.0220691
0.0163609
0.0104084
0.00415131
-0.00261122
-0.00951662
-0.0170093
-0.0248077
-0.0328653
-0.0413685
-0.0501966
-0.0590844
-0.0682379
-0.0776215
-0.0868864
-0.0960863
-0.105249
-0.114273
-0.12293
-0.131171
-0.139103
-0.146602
-0.153635
-0.159958
-0.165785
-0.171089
-0.175811
-0.179959
-0.183419
-0.186352
-0.188757
-0.190625
-0.191976
-0.192802
-0.193174
-0.193101
-0.192569
-0.191842
0.0309468
0.0257259
0.0206637
0.0152591
0.00962851
0.00371817
-0.00265385
-0.00915621
-0.0161929
-0.0235081
-0.0310592
-0.0390149
-0.0472682
-0.0555792
-0.0641338
-0.0729029
-0.0815713
-0.0901869
-0.0987742
-0.107243
-0.115387
-0.123157
-0.130647
-0.137744
-0.144417
-0.150437
-0.155997
-0.161069
-0.165595
-0.169584
-0.172923
-0.175762
-0.178096
-0.179915
-0.181238
-0.182055
-0.182431
-0.182377
-0.181876
-0.181192
0.029144
0.0241893
0.0193816
0.0142579
0.00892419
0.00333271
-0.00268131
-0.00881519
-0.0154361
-0.0223112
-0.0294014
-0.0368596
-0.0445899
-0.0523751
-0.0603833
-0.0685899
-0.0767099
-0.0847861
-0.0928396
-0.100791
-0.108451
-0.115774
-0.122843
-0.129551
-0.135873
-0.141593
-0.146885
-0.151722
-0.156047
-0.159867
-0.163076
-0.165808
-0.168059
-0.169817
-0.171099
-0.171895
-0.172264
-0.172216
-0.171737
-0.171085
0.0274885
0.0227816
0.0182111
0.0133481
0.00828927
0.00299225
-0.0026921
-0.0084874
-0.0147273
-0.0211998
-0.0278688
-0.0348729
-0.0421256
-0.0494296
-0.0569371
-0.0646275
-0.0722425
-0.07982
-0.0873783
-0.094846
-0.102052
-0.108951
-0.115619
-0.121955
-0.127937
-0.133362
-0.13839
-0.142991
-0.147112
-0.150759
-0.153829
-0.156447
-0.158606
-0.160293
-0.161524
-0.162289
-0.162642
-0.162592
-0.162125
-0.161497
0.0259657
0.0214906
0.0171416
0.0125214
0.00771805
0.00269397
-0.00268553
-0.00816835
-0.0140578
-0.0201603
-0.0264427
-0.0330304
-0.0398452
-0.0467077
-0.0537552
-0.0609705
-0.0681193
-0.0752352
-0.0823338
-0.0893505
-0.0961302
-0.10263
-0.108916
-0.114897
-0.12055
-0.12569
-0.130457
-0.134825
-0.138742
-0.142213
-0.145141
-0.147638
-0.149697
-0.151307
-0.15248
-0.153207
-0.153536
-0.153476
-0.153015
-0.152401
0.0245628
0.020305
0.0161635
0.0117701
0.00720509
0.00243514
-0.00266146
-0.0078549
-0.0134206
-0.0191817
-0.0251079
-0.0313123
-0.0377241
-0.0441804
-0.0508045
-0.0575813
-0.0642986
-0.0709863
-0.0776574
-0.0842534
-0.0906333
-0.0967562
-0.102681
-0.108323
-0.113662
-0.118524
-0.123039
-0.127177
-0.130892
-0.134186
-0.136969
-0.139343
-0.141299
-0.142826
-0.143936
-0.144617
-0.144917
-0.144842
-0.14438
-0.143776
0.0232684
0.0192147
0.0152682
0.0110873
0.00674528
0.00221266
-0.00262053
-0.00754494
-0.0128105
-0.0182555
-0.0238524
-0.0297029
-0.0357426
-0.0418235
-0.0480567
-0.0544284
-0.0607454
-0.067035
-0.0733082
-0.0795117
-0.0855166
-0.0912846
-0.096868
-0.102187
-0.107225
-0.111821
-0.11609
-0.120005
-0.123521
-0.126641
-0.129279
-0.131527
-0.133377
-0.134817
-0.13586
-0.136493
-0.136759
-0.136663
-0.136198
-0.135597
0.0220724
0.0182109
0.0144479
0.0104668
0.00633405
0.00202374
-0.00256359
-0.00723718
-0.0122235
-0.0173749
-0.0226662
-0.0281891
-0.0338844
-0.0396174
-0.0454883
-0.0514843
-0.0574301
-0.0633495
-0.0692519
-0.0750885
-0.0807418
-0.0861753
-0.0914362
-0.0964494
-0.101201
-0.10554
-0.109572
-0.113271
-0.116593
-0.119541
-0.122034
-0.124157
-0.1259
-0.127253
-0.128225
-0.128807
-0.129035
-0.128917
-0.128443
-0.127843
0.0209659
0.0172856
0.0136959
0.00990291
0.00596714
0.00186555
-0.00249168
-0.00693062
-0.0116565
-0.0165346
-0.0215415
-0.0267599
-0.0321356
-0.0375455
-0.0430799
-0.0487269
-0.0543272
-0.059902
-0.0654584
-0.070952
-0.0762753
-0.0813943
-0.0863501
-0.091074
-0.0955519
-0.0996463
-0.103451
-0.10694
-0.110073
-0.112854
-0.115205
-0.117203
-0.11884
-0.120104
-0.121005
-0.121533
-0.121722
-0.121579
-0.121094
-0.120491
0.0199408
0.0164319
0.013006
0.00939062
0.00564059
0.00173537
-0.00240605
-0.00662495
-0.0111073
-0.0157301
-0.0204718
-0.0254064
-0.0304844
-0.0355936
-0.040815
-0.0461373
-0.0514156
-0.0566688
-0.061902
-0.0670745
-0.0720884
-0.0769111
-0.0815793
-0.0860291
-0.0902475
-0.0941077
-0.0976939
-0.100981
-0.103933
-0.10655
-0.108762
-0.110638
-0.112169
-0.113346
-0.114175
-0.114648
-0.114797
-0.114627
-0.114129
-0.113521
0.01899
0.0156434
0.0123728
0.00892533
0.00535061
0.00163052
-0.00230786
-0.00631991
-0.0105741
-0.0149579
-0.0194514
-0.0241212
-0.0289214
-0.0337498
-0.0386792
-0.0436988
-0.0486768
-0.0536293
-0.0585605
-0.0634325
-0.0681556
-0.0726996
-0.0770964
-0.0812869
-0.0852592
-0.0888961
-0.0922734
-0.095368
-0.098144
-0.100603
-0.10268
-0.104436
-0.105864
-0.106953
-0.107712
-0.10813
-0.108238
-0.10804
-0.107529
-0.106913
0.0181071
0.0149143
0.0117911
0.00850273
0.00509383
0.0015487
-0.00219822
-0.00601547
-0.0100553
-0.0142149
-0.0184759
-0.0228979
-0.0274384
-0.0320041
-0.0366605
-0.0413974
-0.0460948
-0.0507662
-0.0554145
-0.0600048
-0.0644551
-0.0687364
-0.0728773
-0.0768228
-0.0805616
-0.0839861
-0.0871642
-0.0900735
-0.0926813
-0.0949881
-0.0969335
-0.0985739
-0.0999009
-0.100905
-0.101594
-0.101958
-0.102024
-0.101798
-0.101272
-0.100648
0.0172864
0.0142397
0.0112566
0.00811892
0.00486722
0.00148779
-0.00207841
-0.00571181
-0.00955001
-0.0134989
-0.0175415
-0.0217309
-0.026028
-0.0303476
-0.0347487
-0.0392216
-0.043656
-0.0480641
-0.0524475
-0.0567735
-0.060967
-0.0650011
-0.0689005
-0.0726146
-0.0761324
-0.0793549
-0.0823429
-0.0850759
-0.0875221
-0.0896827
-0.0915016
-0.0930296
-0.0942586
-0.0951799
-0.0957999
-0.0961107
-0.0961365
-0.0958819
-0.0953417
-0.0947073
0.0165226
0.0136149
0.0107649
0.00777047
0.00466806
0.00144568
-0.00194971
-0.00540931
-0.0090574
-0.0128078
-0.0166446
-0.0206156
-0.0246842
-0.0287731
-0.0329352
-0.0371605
-0.0413487
-0.04551
-0.0496444
-0.0537223
-0.0576746
-0.0614756
-0.0651474
-0.0686427
-0.0719512
-0.0749819
-0.0777895
-0.0803537
-0.0826461
-0.0846667
-0.0863637
-0.0877833
-0.0889179
-0.0897587
-0.0903123
-0.0905709
-0.090557
-0.0902747
-0.0897195
-0.0890749
0.0158112
0.0130357
0.0103126
0.00745433
0.00449377
0.00142042
-0.00181319
-0.00510821
-0.00857669
-0.0121398
-0.0157828
-0.0195481
-0.0234022
-0.0272745
-0.0312121
-0.0352055
-0.0391625
-0.0430916
-0.0469926
-0.0508373
-0.0545622
-0.0581439
-0.0616009
-0.0648896
-0.0680001
-0.0708489
-0.0734846
-0.0758888
-0.0780341
-0.0799208
-0.0815013
-0.0828168
-0.0838602
-0.0846238
-0.085113
-0.0853211
-0.0852685
-0.0849593
-0.0843894
-0.0837342
0.015148
0.0124985
0.00989637
0.00716762
0.00434196
0.00141032
-0.00166988
-0.00480877
-0.00810735
-0.0114936
-0.0149535
-0.0185253
-0.0221776
-0.0258461
-0.0295731
-0.0333483
-0.0370879
-0.0407991
-0.0444803
-0.0481056
-0.051617
-0.0549916
-0.058246
-0.0613395
-0.0642629
-0.066939
-0.0694119
-0.0716634
-0.0736691
-0.0754283
-0.076897
-0.0781129
-0.0790692
-0.0797583
-0.0801858
-0.0803451
-0.0802552
-0.07992
-0.0793359
-0.07867
0.0145291
0.0119998
0.00951315
0.00690778
0.00421057
0.00141374
-0.00152077
-0.00451135
-0.0076491
-0.010868
-0.0141552
-0.0175443
-0.0210068
-0.0244836
-0.0280118
-0.031582
-0.0351172
-0.0386231
-0.0420978
-0.0455167
-0.0488264
-0.052006
-0.0550692
-0.0579785
-0.0607247
-0.0632374
-0.0655555
-0.0676627
-0.0695352
-0.0711729
-0.0725353
-0.073656
-0.0745287
-0.075147
-0.075515
-0.0756278
-0.0755022
-0.0751421
-0.0745444
-0.073868
0.0139511
0.0115365
0.00916023
0.00667252
0.0040977
0.00142923
-0.00136688
-0.00421659
-0.00720183
-0.0102623
-0.0133861
-0.0166032
-0.0198865
-0.0231822
-0.0265235
-0.0299005
-0.0332431
-0.0365557
-0.0398358
-0.0430602
-0.0461802
-0.0491756
-0.0520583
-0.0547935
-0.0573724
-0.0597303
-0.0619021
-0.0638718
-0.0656183
-0.0671406
-0.0684014
-0.0694315
-0.070225
-0.0707752
-0.0710868
-0.0711551
-0.0709954
-0.0706118
-0.0700012
-0.0693147
0.0134108
0.0111058
0.00883503
0.00645965
0.00400159
0.00145538
-0.00120921
-0.00392502
-0.00676562
-0.009676
-0.0126452
-0.0156995
-0.0188137
-0.0219385
-0.0251031
-0.0282981
-0.0314592
-0.0345895
-0.0376863
-0.0407277
-0.0436684
-0.0464899
-0.0492023
-0.0517732
-0.054194
-0.0564053
-0.0584382
-0.0602782
-0.0619048
-0.0633175
-0.0644823
-0.0654263
-0.0661439
-0.0666298
-0.0668878
-0.0669137
-0.066722
-0.0663161
-0.0656937
-0.0649974
0.0129053
0.010705
0.0085352
0.0062671
0.00392049
0.00149087
-0.00104863
-0.00363705
-0.00634036
-0.00910854
-0.0119312
-0.0148314
-0.0177856
-0.0207487
-0.0237467
-0.02677
-0.0297597
-0.0327182
-0.0356419
-0.0385106
-0.0412825
-0.0439399
-0.0464913
-0.048907
-0.0511784
-0.0532511
-0.0551528
-0.0568695
-0.0583829
-0.0596919
-0.0607651
-0.0616274
-0.0622736
-0.0626982
-0.0629055
-0.0628916
-0.0626696
-0.062243
-0.0616097
-0.0609045
0.0124319
0.0103317
0.00825857
0.00609299
0.00385283
0.00153446
-0.000885941
-0.00335302
-0.0059261
-0.0085592
-0.0112428
-0.0139971
-0.0168
-0.0196102
-0.0224505
-0.0253117
-0.0281396
-0.0309357
-0.0336963
-0.036402
-0.0390144
-0.0415169
-0.0439164
-0.0461855
-0.0483158
-0.0502574
-0.0520348
-0.0536353
-0.0550412
-0.0562519
-0.0572387
-0.0580237
-0.058602
-0.0589691
-0.0591285
-0.0590771
-0.0588267
-0.0583811
-0.057738
-0.0570248
0.0119883
0.00998382
0.00800319
0.00593561
0.0037972
0.00158505
-0.000721813
-0.00307344
-0.00552259
-0.00802754
-0.0105791
-0.013195
-0.0158545
-0.0185199
-0.0212113
-0.0239192
-0.0265941
-0.029237
-0.0318433
-0.0343952
-0.0368572
-0.0392133
-0.0414694
-0.0436
-0.0455969
-0.0474145
-0.0490746
-0.0505648
-0.0518695
-0.0529874
-0.0538923
-0.0546042
-0.0551188
-0.0554313
-0.0555459
-0.0554593
-0.0551827
-0.0547197
-0.054068
-0.0533477
0.0115721
0.00965928
0.00776726
0.00579343
0.00375229
0.00164168
-0.000557088
-0.00279848
-0.00512991
-0.00751296
-0.00993911
-0.0124237
-0.0149474
-0.0174756
-0.0200257
-0.0225888
-0.0251192
-0.0276169
-0.0300778
-0.0324844
-0.0348041
-0.037022
-0.0391427
-0.0411424
-0.0430134
-0.0447138
-0.0462628
-0.0476494
-0.0488582
-0.0498884
-0.0507161
-0.0513592
-0.0518134
-0.0520752
-0.0521475
-0.0520282
-0.0517275
-0.0512486
-0.0505899
-0.0498637
0.0111815
0.00935629
0.00754917
0.00566503
0.00371694
0.0017033
-0.000392232
-0.0025286
-0.00474787
-0.00701498
-0.00932187
-0.0116818
-0.0140767
-0.0164747
-0.0188913
-0.0213172
-0.0237107
-0.0260715
-0.0283946
-0.030664
-0.0328493
-0.0349365
-0.0369294
-0.0388056
-0.0405577
-0.0421474
-0.0435917
-0.0448798
-0.0459985
-0.0469461
-0.0477009
-0.0482791
-0.0486771
-0.0488908
-0.0489239
-0.0487744
-0.0484515
-0.0479588
-0.0472941
-0.0465634
0.0108145
0.00907318
0.00734742
0.00554911
0.00369005
0.0017692
-0.000227926
-0.00226396
-0.00437642
-0.00653318
-0.00872663
-0.0109682
-0.0132408
-0.0155155
-0.0178052
-0.0201014
-0.0223654
-0.0245963
-0.0267894
-0.0289291
-0.0309873
-0.0329511
-0.0348231
-0.0365828
-0.0382226
-0.0397077
-0.0410531
-0.0422489
-0.0432823
-0.044152
-0.0448384
-0.0453556
-0.0457003
-0.0458696
-0.0458662
-0.0456888
-0.0453459
-0.0448408
-0.0441719
-0.0434381
0.0104694
0.00880843
0.00716066
0.00544452
0.00367072
0.0018385
-6.45925e-05
-0.00200485
-0.0040155
-0.00606717
-0.00815265
-0.0102817
-0.0124383
-0.0145957
-0.0167654
-0.0189385
-0.0210799
-0.0231881
-0.0252579
-0.027275
-0.0292133
-0.0310603
-0.0328182
-0.0344677
-0.0360016
-0.037388
-0.0386402
-0.0397486
-0.0407019
-0.0414985
-0.0421202
-0.0425802
-0.0428756
-0.043003
-0.042966
-0.042763
-0.0424021
-0.0418867
-0.0412149
-0.0404795
0.0101448
0.00856066
0.00698764
0.00535023
0.00365794
0.00191062
9.72532e-05
-0.00175147
-0.00366506
-0.00561661
-0.00759929
-0.00962134
-0.0116677
-0.0137139
-0.0157696
-0.0178262
-0.0198513
-0.0218431
-0.0237966
-0.0256976
-0.0275223
-0.0292592
-0.0309092
-0.0324547
-0.0338887
-0.035182
-0.036346
-0.0373725
-0.0382501
-0.0389778
-0.0395392
-0.0399457
-0.0401945
-0.0402836
-0.0402153
-0.0399891
-0.0396124
-0.0390881
-0.0384151
-0.0376796
0.00983904
0.00832856
0.00682723
0.00526516
0.003651
0.00198484
0.000257232
-0.00150402
-0.00332502
-0.00518115
-0.00706591
-0.00898619
-0.0109278
-0.0128682
-0.0148158
-0.0167619
-0.0186769
-0.0205586
-0.0224016
-0.024193
-0.0259105
-0.027543
-0.0290912
-0.0305384
-0.0318781
-0.0330836
-0.0341648
-0.0351137
-0.0359205
-0.0365837
-0.0370882
-0.0374445
-0.0376505
-0.0377035
-0.0376068
-0.0373597
-0.0369689
-0.0364379
-0.0357648
-0.035031
0.00955095
0.00811098
0.00667837
0.00518848
0.00364909
0.00206063
0.000414988
-0.00126265
-0.00299533
-0.0047605
-0.00655195
-0.00837537
-0.0102174
-0.0120574
-0.0139022
-0.0157436
-0.0175542
-0.0193314
-0.02107
-0.0227576
-0.0243735
-0.0259075
-0.0273595
-0.0287141
-0.0299648
-0.0310874
-0.0320904
-0.0329668
-0.0337067
-0.0343091
-0.0347606
-0.0350703
-0.0352359
-0.0352562
-0.0351334
-0.0348674
-0.0344648
-0.0339281
-0.0332571
-0.0325262
0.00927928
0.00790681
0.00654009
0.00511934
0.00365157
0.0021375
0.000570186
-0.00102752
-0.00267592
-0.00435434
-0.00605686
-0.00778809
-0.00953544
-0.0112799
-0.0130272
-0.0147691
-0.0164807
-0.018159
-0.0197986
-0.0213879
-0.022908
-0.0243488
-0.0257098
-0.0269769
-0.0281438
-0.0291883
-0.030118
-0.0309256
-0.031603
-0.0321486
-0.0325502
-0.0328163
-0.0329451
-0.0329348
-0.0327884
-0.0325057
-0.0320926
-0.0315527
-0.0308843
-0.0301584
0.00902289
0.00771506
0.00641155
0.00505699
0.00365781
0.00221495
0.000722521
-0.000798766
-0.00236672
-0.00396239
-0.00558013
-0.00722356
-0.00888081
-0.0105345
-0.012189
-0.0138367
-0.0154543
-0.0170387
-0.0185847
-0.0200811
-0.0215103
-0.022863
-0.0241383
-0.0253228
-0.0264106
-0.0273815
-0.0282418
-0.0289854
-0.0296038
-0.0300961
-0.0304514
-0.030677
-0.0307712
-0.0307333
-0.0305653
-0.0302678
-0.0298464
-0.029304
-0.0286403
-0.0279203
0.00878074
0.00753484
0.00629187
0.00500075
0.00366725
0.00229256
0.000871723
-0.000576494
-0.00206765
-0.00358438
-0.00512124
-0.00668106
-0.00825263
-0.00981982
-0.0113864
-0.0129445
-0.014473
-0.0159685
-0.0174257
-0.0188341
-0.0201775
-0.0214468
-0.022641
-0.0237477
-0.024761
-0.0256624
-0.0264577
-0.0271406
-0.027704
-0.0281466
-0.0284584
-0.0286462
-0.0287091
-0.0286454
-0.0284582
-0.0281477
-0.0277193
-0.0271765
-0.0265179
-0.0258053
0.00855188
0.00736523
0.00618035
0.00494996
0.00367936
0.00236995
0.00101756
-0.00036078
-0.00177863
-0.00322001
-0.00467974
-0.00615991
-0.00764994
-0.00913499
-0.0106178
-0.012091
-0.0135349
-0.0149459
-0.0163191
-0.0176443
-0.0189063
-0.020097
-0.0212146
-0.0222478
-0.0231909
-0.024027
-0.0247609
-0.0253872
-0.0258987
-0.0262946
-0.0265662
-0.0267192
-0.0267525
-0.0266658
-0.0264611
-0.0261393
-0.0257057
-0.025163
-0.0245113
-0.0238069
0.0083354
0.00720549
0.00607625
0.00490403
0.00369371
0.00244678
0.00115983
-0.000151684
-0.00149954
-0.00286903
-0.00425519
-0.00565949
-0.00707193
-0.00847871
-0.00988205
-0.0112746
-0.0126381
-0.0139692
-0.0152626
-0.016509
-0.0176943
-0.0188104
-0.0198557
-0.0208196
-0.0216965
-0.0224711
-0.0231475
-0.0237202
-0.0241835
-0.0245359
-0.0247697
-0.0248903
-0.024897
-0.0247888
-0.0245686
-0.0242371
-0.0237992
-0.0232584
-0.0226137
-0.0219188
0.00813045
0.00705485
0.00597895
0.00486249
0.00370984
0.00252274
0.00129836
5.07384e-05
-0.00123028
-0.00253117
-0.00384718
-0.00517918
-0.00651773
-0.00785016
-0.00917782
-0.0104938
-0.0117811
-0.0130362
-0.0142542
-0.0154261
-0.0165385
-0.0175843
-0.0185614
-0.0194597
-0.0202743
-0.020991
-0.0216131
-0.022136
-0.0225538
-0.0228656
-0.0230645
-0.0231551
-0.0231367
-0.0230095
-0.0227753
-0.0224355
-0.0219949
-0.0214562
-0.0208199
-0.0201348
0.00793628
0.00691267
0.00588787
0.00482475
0.0037274
0.00259753
0.00143296
0.000246447
-0.000970751
-0.00220619
-0.00345527
-0.0047184
-0.00598664
-0.00724821
-0.00850404
-0.00974718
-0.0109622
-0.0121454
-0.0132918
-0.014393
-0.0154368
-0.016416
-0.0173285
-0.0181652
-0.018921
-0.0195832
-0.0201545
-0.0206302
-0.0210057
-0.0212797
-0.0214458
-0.0215086
-0.0214678
-0.0213227
-0.0210762
-0.0207294
-0.0202866
-0.0197515
-0.0191233
-0.0184488
0.00775219
0.00677826
0.00580244
0.00479044
0.00374596
0.00267089
0.00156351
0.000435414
-0.000720847
-0.00189381
-0.00307908
-0.00427658
-0.00547788
-0.00667211
-0.00785948
-0.00903355
-0.0101799
-0.0112948
-0.0123735
-0.0134079
-0.0143865
-0.0153028
-0.0161545
-0.016933
-0.0176335
-0.0182443
-0.0187677
-0.0191997
-0.0195353
-0.0197739
-0.0199098
-0.019947
-0.0198849
-0.0197241
-0.0194665
-0.0191138
-0.0186701
-0.0181384
-0.0175194
-0.0168552
0.00757743
0.00665108
0.00572214
0.00475904
0.00376523
0.00274259
0.00168986
0.000617623
-0.000480454
-0.00159381
-0.00271819
-0.00385317
-0.00499077
-0.00612079
-0.00724324
-0.00835163
-0.0094328
-0.0104831
-0.0114975
-0.0124686
-0.0133857
-0.0142425
-0.0150367
-0.0157603
-0.0164087
-0.0169713
-0.0174499
-0.0178404
-0.018139
-0.0183446
-0.0184523
-0.0184656
-0.0183846
-0.0182091
-0.0179418
-0.017584
-0.0171397
-0.0166127
-0.0160022
-0.0153486
0.00741143
0.00653053
0.0056465
0.00473024
0.00378487
0.0028124
0.00181192
0.000793072
-0.000249458
-0.00130593
-0.00237224
-0.00344765
-0.00452457
-0.00559361
-0.00665419
-0.00770031
-0.00871966
-0.00970845
-0.0106622
-0.0115733
-0.0124322
-0.0132328
-0.0139728
-0.0146446
-0.0152439
-0.0157611
-0.0161974
-0.0165495
-0.0168132
-0.016988
-0.0170696
-0.017061
-0.0169621
-0.0167737
-0.0164976
-0.0161356
-0.0156917
-0.0151687
-0.0145675
-0.0139241
0.00725355
0.00641614
0.00557509
0.00470361
0.00380465
0.00288014
0.00192958
0.000961764
-2.77404e-05
-0.00102993
-0.00204087
-0.00305951
-0.00407869
-0.00508961
-0.00609154
-0.00707846
-0.0080391
-0.00896975
-0.00986573
-0.0107202
-0.0115241
-0.0122716
-0.0129603
-0.0135834
-0.0141365
-0.0146109
-0.0150077
-0.0153233
-0.0155548
-0.015701
-0.0157581
-0.0157291
-0.0156143
-0.0154137
-0.0151299
-0.0147645
-0.014321
-0.0138031
-0.0132103
-0.0125769
0.00710327
0.0063074
0.0055075
0.0046789
0.00382426
0.00294564
0.00204278
0.00112372
0.00018482
-0.000765596
-0.00172373
-0.00268828
-0.00365248
-0.00460821
-0.00555425
-0.00648504
-0.00738999
-0.00826536
-0.00910682
-0.00990768
-0.0106594
-0.0113568
-0.0119972
-0.0125743
-0.0130839
-0.0135181
-0.0138776
-0.0141596
-0.0143606
-0.01448
-0.0145146
-0.0144669
-0.014337
-0.0141258
-0.0138351
-0.0134668
-0.0130244
-0.0125108
-0.0119268
-0.0113028
0.00696004
0.00620389
0.00544336
0.00465571
0.00384352
0.00300874
0.00215145
0.00127896
0.000388353
-0.000512682
-0.00142046
-0.00233349
-0.0032454
-0.00414852
-0.0050416
-0.00591901
-0.00677109
-0.00759419
-0.00838385
-0.00913392
-0.00983657
-0.0104865
-0.0110813
-0.0116151
-0.0120838
-0.0124802
-0.012805
-0.013055
-0.0132278
-0.0133224
-0.0133359
-0.0132708
-0.0131275
-0.0129062
-0.0126095
-0.0122388
-0.0117976
-0.011289
-0.0107128
-0.0100978
0.00682339
0.00610517
0.00538228
0.00463384
0.00386215
0.00306931
0.00225553
0.00142753
0.000582991
-0.000270952
-0.00113074
-0.00199472
-0.00285684
-0.00371002
-0.00455262
-0.00537943
-0.00618138
-0.00695479
-0.00769556
-0.00839765
-0.00905369
-0.00965894
-0.0102108
-0.0107037
-0.0111339
-0.0114949
-0.0117868
-0.0120073
-0.0121535
-0.012225
-0.0122191
-0.0121381
-0.011982
-0.011752
-0.0114498
-0.0110772
-0.0106376
-0.0101333
-0.00956523
-0.00895862
0.00669285
0.00601085
0.00532395
0.00461293
0.00388003
0.00312722
0.00235498
0.00156945
0.000768862
-4.01831e-05
-0.000854235
-0.00167152
-0.00248629
-0.0032919
-0.00408667
-0.0048654
-0.00561977
-0.00634621
-0.00704053
-0.00769722
-0.00830939
-0.00887236
-0.00938367
-0.00983811
-0.0102322
-0.0105598
-0.0108211
-0.0110137
-0.0111353
-0.0111853
-0.0111613
-0.0110654
-0.0108982
-0.0106599
-0.010353
-0.00997901
-0.0095408
-0.00904147
-0.00848049
-0.00788211
0.00656797
0.00592055
0.00526804
0.00459281
0.0038969
0.00318236
0.00244977
0.00170478
0.000946098
0.000179846
-0.000590639
-0.00136347
-0.00213321
-0.00289367
-0.00364287
-0.00437605
-0.00508531
-0.00576713
-0.00641765
-0.00703142
-0.00760197
-0.00812514
-0.00859823
-0.00901649
-0.00937655
-0.00967288
-0.00990541
-0.0100722
-0.0101707
-0.0102006
-0.01016
-0.0100506
-0.00987268
-0.00962739
-0.00931624
-0.00894113
-0.00850489
-0.00800979
-0.00745636
-0.00686558
0.00644834
0.00583391
0.00521428
0.00457319
0.00391266
0.00323464
0.00253987
0.00183357
0.00111483
0.000389354
-0.000339638
-0.00107017
-0.0017971
-0.00251456
-0.00322064
-0.00391052
-0.00457701
-0.00521669
-0.0058256
-0.00639876
-0.00693023
-0.0074157
-0.00785282
-0.00823703