/*--------------------------------*- C++ -*----------------------------------*\
| =========                 |                                                 |
| \\      /  F ield         | OpenFOAM: The Open Source CFD Toolbox           |
|  \\    /   O peration     | Version:  3.0.1                                 |
|   \\  /    A nd           | Web:      www.OpenFOAM.org                      |
|    \\/     M anipulation  |                                                 |
\*---------------------------------------------------------------------------*/
FoamFile
{
    version     2.0;
    format      ascii;
    class       surfaceScalarField;
    location    "500";
    object      phi;
}
// * * * * * * * * * * * * * * * * * * * * * * * * * * * * * * * * * * * * * //

dimensions      [0 3 -1 0 0 0 0];

internalField   nonuniform List<scalar> 
115520
(
0.0126897
-0.00196676
-0.010723
0.0139056
-0.00121583
0.0141909
-0.000285307
0.0139594
0.000231558
0.0134551
0.000504337
0.0128336
0.000621543
0.0122656
0.000567945
0.0117306
0.000535035
0.0113214
0.000409227
0.0110447
0.000276745
0.0108601
0.000184613
0.0107769
8.32496e-05
0.0107982
-2.12805e-05
0.0108729
-7.47386e-05
0.0109834
-0.000110461
0.0111316
-0.000148228
0.0113074
-0.000175765
0.0114928
-0.000185359
0.0116793
-0.00018652
0.0118679
-0.000188575
0.0120619
-0.000193956
0.0122512
-0.000189355
0.0124319
-0.00018061
0.0126007
-0.000168801
0.0127665
-0.000165836
0.0129247
-0.000158192
0.0130726
-0.000147853
0.0132084
-0.000135835
0.0133308
-0.000122336
0.0134465
-0.000115693
0.0135518
-0.000105257
0.0136454
-9.36701e-05
0.0137271
-8.17088e-05
0.0137968
-6.9604e-05
0.0138438
-4.70365e-05
0.0138397
4.08003e-06
0.0138095
3.01957e-05
0.013781
2.85788e-05
0.0137837
-2.74527e-06
-5.75729e-05
0.0138413
0.00815661
-0.00312722
-0.00699616
0.00919318
-0.00225238
0.0101496
-0.00124169
0.0109908
-0.000609633
0.0116914
-0.00019621
0.0122199
9.29868e-05
0.0126061
0.000181804
0.0128454
0.000295689
0.013003
0.000251708
0.0131059
0.00017383
0.0131517
0.000138808
0.0131837
5.12726e-05
0.0132405
-7.81163e-05
0.0132973
-0.000131446
0.0133609
-0.00017412
0.0134595
-0.000246811
0.0135795
-0.000295766
0.0137071
-0.000312942
0.0138405
-0.000319845
0.0139893
-0.00033741
0.0141508
-0.00035547
0.0143114
-0.000349927
0.0144691
-0.000338266
0.0146215
-0.000321183
0.0147819
-0.000326233
0.014936
-0.000312319
0.015082
-0.000293798
0.0152184
-0.000272283
0.0153441
-0.000247965
0.0154686
-0.000240235
0.0155822
-0.000218811
0.0156839
-0.000195349
0.0157726
-0.000170417
0.015847
-0.000143997
0.0159093
-0.000109396
0.0159561
-4.26587e-05
0.0159927
-6.46792e-06
0.0160258
-4.44913e-06
0.0160619
-3.88791e-05
-0.000110874
0.0161152
0.00756158
-0.00418343
-0.00650537
0.0085356
-0.0032264
0.0094427
-0.00214878
0.0102224
-0.00138933
0.0109094
-0.000883224
0.0115103
-0.000507885
0.0120059
-0.000313797
0.0124317
-0.000130075
0.0127746
-9.12213e-05
0.013054
-0.000105472
0.0132809
-8.81553e-05
0.0134707
-0.000138446
0.0136445
-0.000251945
0.0138009
-0.000287889
0.0139482
-0.000321371
0.0141065
-0.000405116
0.0142717
-0.000460922
0.0144376
-0.000478891
0.0146049
-0.000487114
0.0147805
-0.000512992
0.014962
-0.000536921
0.0151406
-0.000528589
0.0153157
-0.000513302
0.0154858
-0.000491315
0.0156586
-0.000499062
0.0158241
-0.00047773
0.0159809
-0.000450668
0.0161287
-0.000420001
0.0162664
-0.000385731
0.0163993
-0.000373101
0.0165205
-0.000340022
0.0166296
-0.000304383
0.0167259
-0.000266781
0.016809
-0.000227049
0.0168802
-0.000180623
0.0169368
-9.9211e-05
0.0169793
-4.89675e-05
0.017012
-3.7188e-05
0.0170361
-6.29524e-05
-0.000126063
0.0170513
0.00684002
-0.00507968
-0.00594377
0.00772062
-0.00410699
0.00858923
-0.00301737
0.00939117
-0.00219127
0.0101287
-0.00162071
0.0107964
-0.00117566
0.011378
-0.00089535
0.0119022
-0.000654303
0.0123557
-0.000544706
0.012752
-0.000501741
0.0131001
-0.000436279
0.0134059
-0.000444256
0.0136826
-0.000528558
0.0139328
-0.000538136
0.0141618
-0.000550303
0.0143842
-0.00062754
0.014601
-0.000677759
0.0148103
-0.000688116
0.0150137
-0.00069053
0.0152183
-0.00071763
0.0154237
-0.00074231
0.0156236
-0.000728485
0.0158176
-0.000707284
0.016005
-0.000678665
0.0161927
-0.000686822
0.0163723
-0.000657287
0.0165425
-0.000620908
0.0167028
-0.000580277
0.0168525
-0.00053536
0.0169964
-0.000517025
0.0171283
-0.000471971
0.0172477
-0.00042379
0.0173541
-0.000373126
0.0174469
-0.000319813
0.0175282
-0.000261986
0.0175965
-0.000167473
0.0176509
-0.000103371
0.0176929
-7.92072e-05
0.0177234
-9.34543e-05
-0.000144491
0.0177419
0.00645933
-0.00590437
-0.00563464
0.00728269
-0.00493035
0.00811351
-0.00384819
0.00891009
-0.00298784
0.00967072
-0.00238134
0.0103842
-0.00188914
0.0110241
-0.00153528
0.0116193
-0.0012495
0.0121474
-0.00107272
0.012619
-0.00097338
0.0130457
-0.000862934
0.0134271
-0.000825692
0.013771
-0.000872478
0.0140856
-0.000852706
0.0143746
-0.000839304
0.0146473
-0.00090019
0.014907
-0.000937509
0.0151543
-0.000935402
0.0153913
-0.000927479
0.0156236
-0.000949967
0.0158519
-0.000970615
0.0160723
-0.000948843
0.0162847
-0.000919703
0.016489
-0.000882911
0.0166904
-0.000888305
0.0168826
-0.000849448
0.0170645
-0.000802839
0.0172358
-0.00075151
0.0173958
-0.000695398
0.0175483
-0.000669519
0.0176883
-0.000611904
0.0178151
-0.000550638
0.0179285
-0.000486524
0.0180281
-0.000419426
0.0181156
-0.000349493
0.0181898
-0.000241596
0.0182494
-0.000163002
0.0182948
-0.000124571
0.0183257
-0.000124405
-0.000160297
0.0183415
0.00618247
-0.00668495
-0.00540189
0.00696786
-0.00571575
0.00776669
-0.00464702
0.00854858
-0.00376973
0.00931307
-0.00314582
0.0100496
-0.00262567
0.0107294
-0.0022151
0.0113772
-0.00189727
0.0119659
-0.0016614
0.0125023
-0.00150984
0.0129973
-0.00135791
0.0134463
-0.00127469
0.0138529
-0.00127908
0.0142278
-0.00122753
0.0145735
-0.001185
0.0148953
-0.001222
0.0151982
-0.00124042
0.0154842
-0.00122146
0.0157556
-0.00119886
0.016017
-0.00121138
0.01627
-0.00122355
0.0165123
-0.00119116
0.0167443
-0.00115174
0.0169662
-0.00110473
0.0171824
-0.00110451
0.0173879
-0.001055
0.0175821
-0.000997037
0.0177646
-0.00093398
0.0179349
-0.000865731
0.0180963
-0.000830887
0.0182444
-0.000760023
0.0183788
-0.000685037
0.0184992
-0.000606862
0.0186051
-0.000525401
0.0186983
-0.000442634
0.0187775
-0.000320807
0.0188416
-0.000227093
0.0188904
-0.000173409
0.0189238
-0.000157738
-0.000177635
0.0189411
0.00599322
-0.0074434
-0.00523478
0.00675756
-0.00648009
0.00753562
-0.00542507
0.00830439
-0.0045385
0.00906535
-0.00390678
0.00981073
-0.00337105
0.0105136
-0.00291799
0.0111958
-0.00257948
0.0118289
-0.00229443
0.0124162
-0.00209719
0.0129675
-0.00190916
0.0134747
-0.00178189
0.0139375
-0.0017419
0.0143678
-0.00165787
0.0147671
-0.00158431
0.015137
-0.00159182
0.0154832
-0.00158663
0.015809
-0.00154723
0.0161164
-0.00150625
0.0164089
-0.00150391
0.0166887
-0.00150332
0.0169551
-0.0014576
0.0172088
-0.00140542
0.0174501
-0.001346
0.0176826
-0.00133705
0.0179029
-0.00127531
0.0181106
-0.00120466
0.0183052
-0.00112866
0.0184867
-0.00104716
0.0186575
-0.00100169
0.0188142
-0.000916707
0.0189563
-0.000827195
0.0190837
-0.000734195
0.0191959
-0.000637642
0.0192944
-0.000541069
0.019378
-0.000404501
0.0194458
-0.000294881
0.0194974
-0.000224983
0.0195324
-0.000192738
-0.000195624
0.0195504
0.00586002
-0.00819298
-0.00511045
0.00661526
-0.00723534
0.00738274
-0.00619255
0.00814422
-0.00529998
0.00890216
-0.00466473
0.00965132
-0.0041202
0.0103682
-0.0036349
0.0110726
-0.00328381
0.011737
-0.0029589
0.012363
-0.00272316
0.0129588
-0.00250498
0.0135144
-0.0023375
0.0140264
-0.00225384
0.0145067
-0.00213818
0.0149556
-0.00203325
0.0153715
-0.00200773
0.0157605
-0.0019756
0.0161264
-0.0019131
0.0164709
-0.00185073
0.0167962
-0.00182928
0.0171049
-0.001812
0.0173977
-0.00175033
0.0176752
-0.00168292
0.0179379
-0.00160877
0.0181888
-0.00158795
0.0184258
-0.00151223
0.0186485
-0.00142736
0.0188568
-0.001337
0.0190506
-0.00124096
0.019232
-0.00118308
0.0193982
-0.00108295
0.019549
-0.000977952
0.019684
-0.000869206
0.019803
-0.000756662
0.0199072
-0.000645203
0.0199957
-0.000492977
0.0200674
-0.000366599
0.020122
-0.000279579
0.0201591
-0.00022985
-0.00021489
0.0201784
0.00576776
-0.00894295
-0.00501779
0.00652265
-0.00799023
0.00728789
-0.00695779
0.00804836
-0.00606045
0.00880688
-0.00542325
0.00955992
-0.00487324
0.0102875
-0.00436247
0.0110075
-0.0040038
0.0116951
-0.00364651
0.0123506
-0.00337864
0.0129813
-0.00313574
0.0135764
-0.00293256
0.0141302
-0.00280761
0.0146542
-0.00266218
0.0151477
-0.00252678
0.0156065
-0.00246653
0.0160364
-0.00240549
0.0164414
-0.00231814
0.0168229
-0.00223222
0.0171819
-0.00218822
0.0175207
-0.00215088
0.0178413
-0.00207087
0.0181443
-0.00198589
0.0184303
-0.0018948
0.0187013
-0.00185899
0.0189565
-0.00176746
0.0191959
-0.00166672
0.0194194
-0.00156047
0.0196269
-0.00144846
0.0198201
-0.00137628
0.019997
-0.00125985
0.0201573
-0.00113826
0.0203008
-0.00101271
0.0204273
-0.000883154
0.0205377
-0.000755618
0.0206315
-0.000586711
0.0207075
-0.000442644
0.0207655
-0.000337545
0.020805
-0.000269378
-0.000235665
0.0208258
0.00570621
-0.00969993
-0.00494923
0.00646723
-0.00875125
0.00723673
-0.0077273
0.00800181
-0.00682553
0.00876523
-0.00618667
0.00952452
-0.00563254
0.0102627
-0.00510064
0.010996
-0.00473707
0.0117024
-0.00435292
0.0123817
-0.00405795
0.0130406
-0.00379465
0.0136681
-0.00356011
0.0142575
-0.00339693
0.0148193
-0.00322402
0.0153522
-0.00305973
0.0158502
-0.00296444
0.0163183
-0.00287362
0.0167606
-0.00276049
0.017178
-0.00264959
0.0175703
-0.00258049
0.0179398
-0.00252037
0.0182889
-0.00241997
0.0186183
-0.00231535
0.0189288
-0.00220524
0.0192213
-0.00215153
0.0194962
-0.00204237
0.0197536
-0.00192409
0.0199935
-0.00180037
0.0202159
-0.00167087
0.0204221
-0.00158246
0.0206107
-0.00144845
0.0207815
-0.00130907
0.0209344
-0.00116556
0.0210691
-0.00101786
0.0211864
-0.000872977
0.021286
-0.000686286
0.0213669
-0.000523527
0.0214287
-0.000399334
0.021471
-0.00031173
-0.000258297
0.0214937
0.00566865
-0.0104689
-0.00489967
0.0064408
-0.00952339
0.00721973
-0.00850624
0.00799415
-0.00759995
0.00876659
-0.00695911
0.00953523
-0.00640117
0.0102855
-0.00585089
0.0110321
-0.00548364
0.0117556
-0.00507647
0.0124558
-0.00475813
0.0131387
-0.0044776
0.0137939
-0.00421533
0.0144141
-0.00401705
0.0150089
-0.00381888
0.0155767
-0.00362753
0.0161101
-0.00349777
0.0166135
-0.00337708
0.0170909
-0.00323784
0.0175425
-0.00310118
0.0179671
-0.00300517
0.0183669
-0.00292017
0.0187447
-0.00279771
0.019101
-0.00267167
0.0194365
-0.00254071
0.0197514
-0.00246648
0.020047
-0.00233793
0.0203234
-0.00220048
0.0205807
-0.0020577
0.020819
-0.00190918
0.0210392
-0.00180259
0.0212404
-0.00164967
0.0214225
-0.00149123
0.0215855
-0.00132852
0.0217291
-0.00116149
0.0218541
-0.000997913
0.02196
-0.000792264
0.0220463
-0.000609739
0.0221123
-0.000465381
0.0221579
-0.000357279
-0.000283093
0.0221827
0.00565044
-0.0112539
-0.0048655
0.0064377
-0.0103106
0.00723024
-0.00929878
0.00801799
-0.00838769
0.00880314
-0.00774427
0.00958429
-0.00718232
0.0103488
-0.00661539
0.0111099
-0.00624473
0.0118505
-0.00581714
0.0125705
-0.00547805
0.0132753
-0.00518241
0.0139552
-0.0048953
0.0146029
-0.00466473
0.0152273
-0.00444325
0.0158263
-0.00422655
0.0163919
-0.00406336
0.016928
-0.00391317
0.017438
-0.00374787
0.0179219
-0.00358509
0.0183778
-0.00346099
0.0188072
-0.00334957
0.0192132
-0.00320373
0.0195963
-0.00305479
0.019957
-0.0029014
0.0202948
-0.00280433
0.0206117
-0.00265476
0.0209078
-0.00249657
0.0211832
-0.00233317
0.0214382
-0.00216413
0.0216731
-0.00203746
0.0218877
-0.00186426
0.0220819
-0.00168544
0.0222556
-0.00150224
0.0224087
-0.00131462
0.0225418
-0.00113098
0.0226547
-0.000905143
0.0227467
-0.000701721
0.0228174
-0.00053607
0.0228664
-0.000406355
-0.000310318
0.0228937
0.00564827
-0.012058
-0.00484412
0.00645395
-0.0111163
0.00726356
-0.0101084
0.008068
-0.00919213
0.00886916
-0.00854542
0.00966581
-0.00797898
0.0104469
-0.00739645
0.0112243
-0.00702212
0.011983
-0.00657584
0.0127227
-0.00621774
0.0134486
-0.00590832
0.0141518
-0.00559852
0.0148251
-0.005338
0.0154766
-0.00509477
0.0161042
-0.0048542
0.0166996
-0.00465877
0.0172661
-0.00447966
0.0178068
-0.00428853
0.0183212
-0.00409954
0.0188069
-0.00394663
0.019265
-0.00380768
0.0196986
-0.00363741
0.0201082
-0.00346434
0.020494
-0.00328717
0.0208549
-0.00316526
0.0211933
-0.00299318
0.0215095
-0.00281277
0.0218036
-0.00262728
0.0220757
-0.00243624
0.0223259
-0.00228766
0.0225545
-0.0020928
0.0227613
-0.00189226
0.0229463
-0.00168727
0.0231095
-0.00147776
0.0232511
-0.00127264
0.0233713
-0.00102534
0.0234694
-0.000799838
0.0235451
-0.000611717
0.023598
-0.000459224
-0.000340187
0.0236278
0.00565974
-0.0128842
-0.00483358
0.00648665
-0.0119432
0.0073163
-0.0109381
0.00814037
-0.0100162
0.00896041
-0.00936546
0.00977534
-0.00879391
0.0105753
-0.0081964
0.011371
-0.00781782
0.0121491
-0.00735392
0.0129093
-0.00697796
0.0136564
-0.00665547
0.0143824
-0.00632449
0.0150803
-0.00603589
0.0157576
-0.00577203
0.0164121
-0.00550876
0.0170356
-0.00528224
0.0176308
-0.00507484
0.0182004
-0.00485818
0.0187439
-0.00464302
0.0192582
-0.00446087
0.0197441
-0.00429361
0.0202047
-0.00409806
0.0206402
-0.00389984
0.0210508
-0.00369772
0.0214348
-0.00354929
0.0217949
-0.00335332
0.0221315
-0.00314929
0.0224445
-0.0029403
0.0227341
-0.00272585
0.0230001
-0.00255362
0.023243
-0.00233573
0.0234628
-0.00211211
0.0236596
-0.00188399
0.0238331
-0.00165128
0.0239837
-0.00142326
0.0241116
-0.00115319
0.0242161
-0.000904383
0.024297
-0.000692572
0.0243538
-0.000516093
-0.000372856
0.0243865
0.00568304
-0.0137348
-0.00483244
0.00653369
-0.0127939
0.007386
-0.0117904
0.00823229
-0.0108625
0.0090738
-0.010207
0.00990952
-0.00962963
0.0107306
-0.00901748
0.0115467
-0.00863389
0.0123458
-0.00815302
0.0131277
-0.00775987
0.0138968
-0.00742457
0.0146457
-0.00707341
0.0153679
-0.00675814
0.0160703
-0.00647441
0.0167508
-0.00618926
0.0174012
-0.00593268
0.018024
-0.00569756
0.0186214
-0.00545562
0.0191927
-0.00521436
0.0197346
-0.00500272
0.0202476
-0.00480657
0.0207345
-0.00458503
0.0211955
-0.00436079
0.0216305
-0.00413272
0.0220375
-0.00395629
0.0224193
-0.00373517
0.0227763
-0.00350623
0.0231084
-0.00327241
0.0234157
-0.00303317
0.0236977
-0.00283564
0.0239554
-0.00259336
0.0241886
-0.00234532
0.0243973
-0.00209272
0.0245815
-0.00183549
0.0247414
-0.00158313
0.0248771
-0.00128896
0.0249883
-0.00101558
0.0250746
-0.000778821
0.0251356
-0.000577106
-0.000408429
0.0251712
0.00571683
-0.0146121
-0.00483954
0.00659349
-0.0136705
0.00747082
-0.0126677
0.00834167
-0.0117333
0.00920703
-0.0110723
0.0100659
-0.0104885
0.0109102
-0.00986181
0.0117487
-0.00947235
0.0125705
-0.00897485
0.0133755
-0.00856483
0.0141676
-0.00821668
0.0149401
-0.00784593
0.015687
-0.00750504
0.0164144
-0.00720186
0.0171205
-0.00689534
0.0177973
-0.0066095
0.0184469
-0.00634711
0.0190713
-0.00608006
0.0196697
-0.00581273
0.0202384
-0.00557144
0.0207778
-0.00534594
0.0212905
-0.0050978
0.0217765
-0.00484677
0.0222356
-0.00459183
0.0226655
-0.00438613
0.023069
-0.00413869
0.0234464
-0.00388362
0.0237977
-0.00362367
0.0241228
-0.00335834
0.0244211
-0.00313395
0.0246937
-0.00286594
0.0249405
-0.00259213
0.0251615
-0.00231371
0.0253566
-0.0020306
0.025526
-0.00175247
0.0256698
-0.00143284
0.0257879
-0.0011336
0.0258796
-0.000870596
0.0259449
-0.000642358
-0.000446961
0.0259834
0.00576008
-0.0155181
-0.00485402
0.00666487
-0.0145753
0.00756939
-0.0135722
0.00846699
-0.012631
0.00935838
-0.0119637
0.0102425
-0.0113726
0.0111121
-0.0107314
0.011975
-0.0103352
0.0128213
-0.00982116
0.0136508
-0.00939435
0.0144672
-0.00903306
0.0152643
-0.00864302
0.0160365
-0.0082772
0.0167893
-0.00795472
0.0175211
-0.00762708
0.0182242
-0.00731259
0.0189003
-0.00702322
0.0195513
-0.0067311
0.0201762
-0.00643765
0.0207713
-0.00616656
0.0213367
-0.00591132
0.0218749
-0.00563598
0.0223856
-0.00535744
0.0228685
-0.00507479
0.0233211
-0.0048387
0.0237463
-0.00456383
0.0241441
-0.00428145
0.0245146
-0.00399417
0.0248577
-0.00370146
0.0251725
-0.00344873
0.0254602
-0.00315364
0.0257208
-0.00285273
0.0259542
-0.00254713
0.0261604
-0.00223679
0.0263394
-0.00193146
0.0264915
-0.00158498
0.0266165
-0.00125854
0.0267139
-0.000967978
0.0267834
-0.000711896
-0.000488462
0.0268249
0.005812
-0.016455
-0.00487518
0.00674691
-0.0155102
0.00768071
-0.014506
0.00860711
-0.0135574
0.00952659
-0.0128832
0.0104381
-0.0122842
0.011335
-0.0116283
0.0122241
-0.0112244
0.0130967
-0.0106937
0.0139524
-0.01025
0.0147944
-0.00987512
0.0156172
-0.00946584
0.0164156
-0.00907553
0.0171945
-0.00873366
0.0179523
-0.00838491
0.0186819
-0.00804217
0.0193846
-0.00772594
0.0200622
-0.00740867
0.0207135
-0.00708895
0.0213348
-0.00678787
0.021926
-0.0065025
0.0224894
-0.00619938
0.0230246
-0.00589262
0.0235312
-0.00558145
0.0240065
-0.00531395
0.0244532
-0.00501058
0.0248715
-0.00469977
0.0252613
-0.00438394
0.0256225
-0.00406261
0.0259538
-0.00378011
0.0262568
-0.00345663
0.0265314
-0.00312727
0.0267774
-0.00279314
0.0269948
-0.00245419
0.0271835
-0.00212021
0.027344
-0.00174549
0.027476
-0.0013905
0.027579
-0.00107101
0.0276529
-0.000785731
-0.000532909
0.0276973
0.00587198
-0.0174245
-0.00490248
0.00683896
-0.0164772
0.007804
-0.0154711
0.00876117
-0.0145145
0.00971073
-0.0138328
0.0106516
-0.013225
0.0115776
-0.0125543
0.012495
-0.0121417
0.0133955
-0.0115943
0.0142789
-0.0111334
0.0151482
-0.0107443
0.015998
-0.0103157
0.0168236
-0.00990107
0.0176294
-0.00953955
0.0184141
-0.00916951
0.0191706
-0.00879873
0.0199003
-0.00845563
0.0206046
-0.00811297
0.0212824
-0.0077667
0.0219299
-0.00743539
0.0225469
-0.00711949
0.0231354
-0.00678796
0.0236951
-0.00645228
0.0242254
-0.00611176
0.0247234
-0.0058119
0.0251918
-0.00547898
0.0256306
-0.00513862
0.0260397
-0.00479306
0.026419
-0.00444188
0.0267671
-0.00412823
0.0270855
-0.00377503
0.0273742
-0.00341588
0.0276329
-0.00305185
0.0278616
-0.00268292
0.0280602
-0.00231885
0.0282292
-0.00191446
0.0283682
-0.00152953
0.0284769
-0.00117972
0.0285551
-0.000863848
-0.000580251
0.0286024
0.00593956
-0.0184285
-0.00493549
0.0069405
-0.0174782
0.00793872
-0.0164693
0.00892858
-0.0155044
0.00991015
-0.0148143
0.0108823
-0.0141972
0.0118393
-0.0135113
0.0127867
-0.0130892
0.013717
-0.0125246
0.0146298
-0.0120462
0.0155277
-0.0116423
0.016406
-0.0111939
0.01726
-0.010755
0.0180939
-0.0103734
0.0189061
-0.00998177
0.0196904
-0.00958298
0.0204476
-0.00921284
0.021179
-0.00884443
0.0218836
-0.00847124
0.0225575
-0.00810937
0.0232005
-0.00776245
0.0238144
-0.00740186
0.0243986
-0.0070365
0.0249527
-0.00666581
0.0254734
-0.00633266
0.0259636
-0.00596916
0.0264231
-0.00559813
0.0268517
-0.00522167
0.0272493
-0.0048394
0.0276143
-0.00449325
0.0279482
-0.004109
0.0282511
-0.00371869
0.0285226
-0.00332339
0.0287628
-0.00292308
0.0289714
-0.00252745
0.0291488
-0.00209195
0.029295
-0.00167565
0.0294094
-0.0012941
0.0294917
-0.000946215
-0.000630422
0.0295419
0.00601438
-0.019469
-0.00497388
0.00705116
-0.0185149
0.00808446
-0.0175026
0.00910891
-0.0165288
0.0101244
-0.0158298
0.0111297
-0.0152025
0.0121195
-0.0145011
0.0130988
-0.0140685
0.0140606
-0.0134863
0.0150045
-0.01299
0.0159327
-0.0125705
0.0168408
-0.012102
0.0177245
-0.0116387
0.0185875
-0.0112365
0.0194285
-0.0108227
0.0202413
-0.0103958
0.0210267
-0.00999829
0.021786
-0.00960366
0.0225178
-0.00920305
0.0232186
-0.0088102
0.0238879
-0.00843175
0.0245274
-0.00804136
0.0251365
-0.00764554
0.0257145
-0.00724381
0.0262582
-0.00687645
0.0267704
-0.0064813
0.0272507
-0.00607848
0.027699
-0.00566993
0.0281149
-0.00525533
0.028497
-0.00487535
0.0288467
-0.0044587
0.0291639
-0.00403587
0.0294484
-0.00360788
0.0297001
-0.00317477
0.0299187
-0.0027461
0.0301048
-0.00227802
0.030258
-0.00182889
0.0303781
-0.00141415
0.0304647
-0.00103279
-0.00068334
0.0305176
0.00609619
-0.0205479
-0.00501738
0.00717068
-0.0195894
0.00824096
-0.0185729
0.00930188
-0.0175898
0.0103531
-0.0168811
0.0113935
-0.016243
0.012418
-0.0155256
0.013431
-0.0150815
0.014426
-0.0144814
0.0154026
-0.0139666
0.0163627
-0.0135306
0.0173022
-0.0130415
0.018217
-0.0125535
0.0191105
-0.01213
0.0199812
-0.0116935
0.0208236
-0.0112381
0.0216382
-0.0108129
0.022426
-0.0103914
0.0231857
-0.0099628
0.023914
-0.00953846
0.0246101
-0.00912786
0.0252756
-0.0087069
0.0259098
-0.00827976
0.0265121
-0.00784608
0.0270792
-0.00744358
0.0276136
-0.00701569
0.0281151
-0.00657992
0.0285832
-0.00613807
0.0290177
-0.00568987
0.0294171
-0.00527473
0.0297827
-0.00482432
0.0301144
-0.00436756
0.030412
-0.00390547
0.0306754
-0.00343811
0.0309042
-0.00297491
0.0310989
-0.00247274
0.0312593
-0.00198929
0.031385
-0.00153985
0.0314757
-0.00112351
-0.000738918
0.0315313
0.00618479
-0.0216669
-0.00506577
0.00729889
-0.0207035
0.00840804
-0.019682
0.00950733
-0.0186891
0.0105963
-0.01797
0.0116736
-0.0173203
0.0127346
-0.0165865
0.0137831
-0.01613
0.0148131
-0.0155114
0.015824
-0.0149775
0.0168177
-0.0145243
0.0177901
-0.014014
0.0187374
-0.0135008
0.0196627
-0.0130553
0.0205646
-0.0125953
0.0214376
-0.0121112
0.0222824
-0.0116576
0.0230996
-0.0112086
0.023888
-0.0107513
0.0246444
-0.0102948
0.025368
-0.00985142
0.0260601
-0.00939902
0.02672
-0.00893965
0.0273469
-0.00847304
0.0279378
-0.00803444
0.0284948
-0.00757269
0.0290177
-0.00710277
0.029506
-0.00662638
0.0299594
-0.00614331
0.0303763
-0.00569165
0.0307581
-0.00520609
0.0311045
-0.00471397
0.0314154
-0.00421632
0.0316905
-0.00371322
0.0319295
-0.00321397
0.032133
-0.00267617
0.0323005
-0.00215687
0.0324319
-0.00167119
0.0325267
-0.00121835
-0.000797062
0.0325849
0.00628005
-0.022828
-0.00511892
0.00743568
-0.0218591
0.00858564
-0.020832
0.0097252
-0.0198286
0.0108537
-0.0190985
0.0119699
-0.0184365
0.0130692
-0.0176858
0.0141551
-0.0172159
0.0152219
-0.0165782
0.0162689
-0.0160246
0.0172978
-0.0155532
0.0183048
-0.0150209
0.0192861
-0.0144822
0.0202446
-0.0140138
0.0211789
-0.0135296
0.0220838
-0.0130161
0.0229598
-0.0125335
0.0238074
-0.0120563
0.0246256
-0.0115694
0.0254109
-0.0110802
0.0261626
-0.0106031
0.026882
-0.0101184
0.0275681
-0.00962579
0.0282203
-0.00912522
0.0288354
-0.00864951
0.0294154
-0.00815273
0.0299601
-0.00764745
0.0304689
-0.00713524
0.0309416
-0.00661595
0.0313763
-0.00612642
0.0317745
-0.00560427
0.0321359
-0.00507533
0.0324602
-0.00454062
0.0327472
-0.00400027
0.0329967
-0.0034634
0.0332089
-0.0028884
0.0333837
-0.00233167
0.0335207
-0.00180818
0.0336196
-0.00131724
-0.000857679
0.0336802
0.00638191
-0.0240332
-0.00517671
0.00758101
-0.0230583
0.00877374
-0.0220247
0.00995551
-0.0210104
0.0111255
-0.0202685
0.0122824
-0.0195934
0.0134219
-0.0188253
0.014547
-0.018341
0.0156524
-0.0176836
0.0167374
-0.0171095
0.0178032
-0.016619
0.0188464
-0.0160641
0.0198633
-0.0154991
0.0208565
-0.015007
0.0218246
-0.0144977
0.0227627
-0.0139542
0.0236711
-0.0134419
0.0245503
-0.0129355
0.0253991
-0.0124182
0.0262143
-0.0118954
0.026995
-0.0113839
0.0277423
-0.0108657
0.0284554
-0.0103389
0.0291335
-0.00980326
0.0297733
-0.00928938
0.030377
-0.00875634
0.0309439
-0.00821441
0.0314737
-0.00766505
0.031966
-0.00710818
0.0324189
-0.00657937
0.0328338
-0.00601916
0.0332104
-0.00545189
0.0335483
-0.0048786
0.0338475
-0.00429943
0.0341074
-0.00372335
0.0343286
-0.00310952
0.0345106
-0.00251375
0.0346533
-0.0019508
0.0347562
-0.00142013
-0.000920679
0.0348192
0.00649034
-0.0252845
-0.00523906
0.00773491
-0.0243028
0.00897239
-0.0232622
0.0101984
-0.0222364
0.0114118
-0.021482
0.0126114
-0.020793
0.013793
-0.0200068
0.0149593
-0.0195073
0.0161051
-0.0188295
0.0172297
-0.0182341
0.0183343
-0.0177235
0.0194153
-0.0171451
0.0204694
-0.0165532
0.0214988
-0.0160365
0.0225022
-0.015501
0.0234749
-0.0149269
0.024417
-0.014384
0.0253289
-0.0138474
0.0262095
-0.0132987
0.0270555
-0.0127414
0.0278662
-0.0121946
0.0286424
-0.0116419
0.0293833
-0.0110797
0.0300879
-0.0105079
0.0307532
-0.00995469
0.0313809
-0.00938411
0.0319707
-0.00880419
0.032522
-0.00821631
0.0330342
-0.00762043
0.0335058
-0.0070509
0.0339377
-0.00645111
0.0343298
-0.00584397
0.0346817
-0.00523049
0.0349931
-0.00461089
0.0352638
-0.00399396
0.0354939
-0.00333966
0.0356833
-0.00270315
0.0358316
-0.00209909
0.0359385
-0.00152701
-0.000985976
0.0360038
0.00660534
-0.0265839
-0.00530593
0.00789743
-0.0255949
0.00918171
-0.0245465
0.0104539
-0.0235085
0.0117128
-0.0227409
0.0129571
-0.0220372
0.0141828
-0.0212325
0.0153921
-0.0207166
0.0165803
-0.0200176
0.0177464
-0.0194003
0.0188914
-0.0188686
0.020012
-0.0182657
0.021105
-0.0176462
0.0221723
-0.0171037
0.0232125
-0.0165412
0.0242211
-0.0159356
0.0251983
-0.0153612
0.0261443
-0.0147934
0.0270578
-0.0142122
0.0279358
-0.0136195
0.0287775
-0.0130362
0.0295835
-0.0124479
0.0303529
-0.0118491
0.0310848
-0.0112398
0.0317763
-0.0106462
0.0324289
-0.0100367
0.0330421
-0.00941741
0.0336154
-0.00878955
0.0341481
-0.00815318
0.0346387
-0.00754145
0.0350881
-0.00690051
0.035496
-0.00625188
0.0358621
-0.00559659
0.0361861
-0.0049349
0.0364676
-0.00427544
0.0367069
-0.00357893
0.0369037
-0.00289997
0.0370576
-0.00225305
0.0371685
-0.00163783
-0.00105349
0.037236
0.00672695
-0.0279335
-0.0053773
0.00806866
-0.0269366
0.00940184
-0.0258796
0.0107223
-0.024829
0.0120288
-0.0240474
0.0133198
-0.0233282
0.0145915
-0.0225042
0.0158458
-0.021971
0.0170783
-0.0212501
0.0182878
-0.0206098
0.0194752
-0.0200559
0.0206372
-0.0194277
0.0217708
-0.0187798
0.0228776
-0.0182105
0.0239561
-0.0176198
0.0250023
-0.0169818
0.026016
-0.0163749
0.0269973
-0.0157747
0.027945
-0.0151599
0.0288562
-0.0145307
0.0297299
-0.0139099
0.0305668
-0.0132848
0.0313657
-0.0126481
0.0321259
-0.012
0.0328443
-0.0113646
0.0335225
-0.0107149
0.0341598
-0.0100547
0.0347556
-0.00938539
0.0353095
-0.00870699
0.0358195
-0.00805151
0.0362868
-0.00736778
0.0367109
-0.006676
0.0370915
-0.00597721
0.0374284
-0.00527172
0.0377209
-0.00456798
0.0379695
-0.00382749
0.0381738
-0.0031043
0.0383335
-0.00241274
0.0384482
-0.00175258
-0.00112315
0.0385179
0.00685526
-0.0293356
-0.00545319
0.00824875
-0.0283301
0.00963298
-0.0272639
0.0110039
-0.0261999
0.01236
-0.0254036
0.0136998
-0.0246681
0.0150196
-0.023824
0.0163211
-0.0232724
0.0175998
-0.0225288
0.0188547
-0.0218647
0.0200863
-0.0212875
0.0212915
-0.020633
0.0224675
-0.0199557
0.0236154
-0.0193585
0.0247341
-0.0187384
0.0258193
-0.018067
0.026871
-0.0174265
0.0278891
-0.0167928
0.0288724
-0.0161432
0.029818
-0.0154764
0.030725
-0.0148169
0.0315937
-0.0141535
0.0324232
-0.0134776
0.0332125
-0.0127893
0.0339588
-0.0121109
0.0346633
-0.0114194
0.0353255
-0.0107168
0.0359446
-0.0100045
0.03652
-0.00928245
0.0370501
-0.00858162
0.0375358
-0.00785342
0.0379765
-0.00711676
0.038372
-0.00637271
0.0387219
-0.00562163
0.0390258
-0.00487182
0.0392838
-0.00408553
0.0394958
-0.00331626
0.0396612
-0.0025782
0.0397799
-0.00187125
-0.00119488
0.0398517
0.00699036
-0.0307924
-0.00553363
0.00843788
-0.0297776
0.00987538
-0.0287014
0.0112989
-0.0276234
0.0127068
-0.0268115
0.0140976
-0.0260588
0.0154677
-0.0251941
0.0168183
-0.024623
0.0181453
-0.0238558
0.0194475
-0.0231669
0.0207253
-0.0225654
0.0219758
-0.0218834
0.0231959
-0.0211758
0.0243869
-0.0205494
0.0255473
-0.0198988
0.0266732
-0.019193
0.0277644
-0.0185178
0.0288208
-0.0178492
0.0298411
-0.0171635
0.0308225
-0.0164578
0.0317639
-0.0157583
0.0326657
-0.0150553
0.0335269
-0.0143387
0.0343464
-0.0136088
0.0351215
-0.012886
0.0358532
-0.0121511
0.0365409
-0.0114046
0.037184
-0.0106476
0.0377818
-0.00988021
0.0383325
-0.00913237
0.038837
-0.00835793
0.0392949
-0.0075746
0.0397056
-0.00678348
0.040069
-0.00598497
0.0403844
-0.00518722
0.0406521
-0.00435323
0.0408718
-0.00353598
0.0410431
-0.00274951
0.0411657
-0.00199385
-0.00126863
0.0412394
0.00713239
-0.0323061
-0.00561866
0.00863623
-0.0312815
0.0101293
-0.0301945
0.0116077
-0.0291018
0.0130697
-0.0282736
0.0145137
-0.0275028
0.0159362
-0.0266165
0.0173381
-0.026025
0.0187155
-0.0252332
0.0200671
-0.0245186
0.0213932
-0.0238914
0.0226908
-0.023181
0.023957
-0.022442
0.0251928
-0.0217852
0.0263968
-0.0211027
0.0275652
-0.0203614
0.0286976
-0.0196502
0.0297938
-0.0189454
0.0308525
-0.0182222
0.031871
-0.0174763
0.0328483
-0.0167355
0.0337844
-0.0159914
0.0346783
-0.0152327
0.0355291
-0.0144596
0.036334
-0.0136908
0.0370938
-0.0129109
0.037808
-0.0121188
0.0384759
-0.0113154
0.0390966
-0.010501
0.0396686
-0.00970437
0.0401926
-0.00888187
0.040668
-0.00805002
0.0410945
-0.00720993
0.0414716
-0.00636207
0.0417988
-0.00551447
0.0420764
-0.00463082
0.042304
-0.0037636
0.0424813
-0.00292674
0.0426078
-0.00212039
-0.00134433
0.0426835
0.00728149
-0.0338792
-0.00570837
0.00884405
-0.032844
0.0103951
-0.0317455
0.0119307
-0.0306374
0.0134491
-0.029792
0.0149486
-0.0290023
0.0164257
-0.0280936
0.0178812
-0.0274804
0.0193112
-0.0266632
0.0207144
-0.0259218
0.0220907
-0.0252678
0.0234375
-0.0245278
0.0247518
-0.0237563
0.0260343
-0.0230678
0.0272837
-0.0223521
0.0284963
-0.021574
0.0296716
-0.0208254
0.0308093
-0.0200831
0.031908
-0.0193209
0.0329652
-0.0185335
0.0339796
-0.0177499
0.0349513
-0.0169632
0.0358793
-0.0161607
0.0367625
-0.0153428
0.0375982
-0.0145265
0.0383872
-0.0136999
0.0391288
-0.0128604
0.0398222
-0.0120088
0.0404667
-0.0111455
0.0410606
-0.0102983
0.0416046
-0.00942586
0.0420981
-0.00854354
0.0425407
-0.00765253
0.042932
-0.00675334
0.0432714
-0.00585388
0.0435591
-0.00491853
0.0437948
-0.0039993
0.0439781
-0.00310999
0.0441086
-0.00225089
-0.00142194
0.0441862
0.00743785
-0.0355142
-0.00580285
0.0090616
-0.0344678
0.010673
-0.0333569
0.0122683
-0.0322327
0.0138455
-0.0313692
0.0154029
-0.0305596
0.016937
-0.0296277
0.0184483
-0.0289918
0.0199331
-0.028148
0.0213901
-0.0273787
0.0228189
-0.0266966
0.0242169
-0.0259258
0.0255813
-0.0251207
0.0269126
-0.0243991
0.0282093
-0.0236488
0.029468
-0.0228327
0.0306879
-0.0220454
0.0318688
-0.0212639
0.0330092
-0.0204613
0.0341065
-0.0196308
0.0351595
-0.0188029
0.0361683
-0.0179719
0.0371316
-0.017124
0.0380484
-0.0162596
0.038916
-0.0153941
0.0397352
-0.0145191
0.0405051
-0.0136303
0.041225
-0.0127287
0.041894
-0.0118146
0.0425107
-0.010915
0.0430754
-0.00999053
0.0435876
-0.00905575
0.0440468
-0.00811177
0.0444526
-0.00715919
0.0448046
-0.00620579
0.0451027
-0.00521664
0.0453466
-0.00424327
0.045536
-0.00329938
0.0456705
-0.0023854
-0.00150142
0.04575
0.00760167