/*--------------------------------*- C++ -*----------------------------------*\
| =========                 |                                                 |
| \\      /  F ield         | OpenFOAM: The Open Source CFD Toolbox           |
|  \\    /   O peration     | Version:  3.0.1                                 |
|   \\  /    A nd           | Web:      www.OpenFOAM.org                      |
|    \\/     M anipulation  |                                                 |
\*---------------------------------------------------------------------------*/
FoamFile
{
    version     2.0;
    format      ascii;
    class       volVectorField;
    location    "500";
    object      U;
}
// * * * * * * * * * * * * * * * * * * * * * * * * * * * * * * * * * * * * * //

dimensions      [0 1 -1 0 0 0 0];

internalField   nonuniform List<vector> 
58000
(
(0.325867 1.04019 -2.21447e-22)
(0.455369 1.1806 -9.1428e-21)
(0.595038 1.23785 1.46745e-20)
(0.720854 1.22119 -2.46607e-20)
(0.822412 1.1579 -4.87622e-20)
(0.903417 1.07255 0)
(0.968372 0.983703 -2.92551e-20)
(1.01888 0.895139 -9.01153e-22)
(1.06077 0.811829 3.29793e-20)
(1.09501 0.739098 0)
(1.12314 0.674721 3.59126e-20)
(1.14735 0.618299 3.35852e-20)
(1.16854 0.571743 -1.09238e-19)
(1.18428 0.532374 3.84519e-20)
(1.19618 0.497956 3.39353e-20)
(1.20559 0.468359 6.938e-20)
(1.21245 0.443017 -1.01605e-19)
(1.21751 0.420512 0)
(1.22129 0.399665 6.51719e-20)
(1.22409 0.380144 -9.70575e-20)
(1.22593 0.362256 6.1416e-22)
(1.22679 0.345599 3.17904e-20)
(1.22719 0.329647 1.50489e-20)
(1.22669 0.313854 0)
(1.22595 0.298795 2.85489e-20)
(1.22427 0.284641 -1.41613e-20)
(1.22223 0.271018 0)
(1.21993 0.257739 3.35791e-22)
(1.21695 0.244528 0)
(1.21389 0.231887 -1.32021e-20)
(1.21022 0.219947 6.45974e-20)
(1.20639 0.208373 -6.41267e-20)
(1.20243 0.197023 -3.78554e-20)
(1.19816 0.185756 9.91442e-20)
(1.1936 0.174641 -2.46243e-20)
(1.18688 0.163644 -1.21801e-20)
(1.17659 0.153174 1.80446e-20)
(1.16594 0.144057 -1.15926e-20)
(1.15671 0.136347 1.72711e-20)
(1.15634 0.131258 0)
(0.541311 0.675629 -8.70782e-21)
(0.64164 0.753607 0)
(0.748056 0.81436 9.4399e-24)
(0.852624 0.864273 -9.6736e-24)
(0.952427 0.898747 2.87285e-20)
(1.04508 0.911932 2.3035e-20)
(1.12464 0.90628 -4.54156e-20)
(1.19231 0.885626 1.32429e-20)
(1.24799 0.852902 6.52352e-20)
(1.29043 0.813864 -3.5614e-20)
(1.32268 0.770219 0)
(1.3457 0.723987 -6.69451e-20)
(1.36003 0.67988 4.40466e-20)
(1.36924 0.638685 2.42838e-20)
(1.37483 0.598842 -2.43666e-20)
(1.37767 0.562162 0)
(1.37864 0.529474 2.41817e-20)
(1.37842 0.499284 0)
(1.37731 0.470694 9.17717e-20)
(1.3756 0.444182 -1.37406e-19)
(1.37355 0.420272 0)
(1.37119 0.398047 1.11876e-19)
(1.36855 0.376725 -8.86346e-20)
(1.36553 0.356068 0)
(1.36239 0.336917 -3.21416e-20)
(1.3591 0.319252 0)
(1.35557 0.302206 0)
(1.3518 0.285605 3.08941e-20)
(1.34768 0.269352 0)
(1.34347 0.254078 -3.00958e-20)
(1.33918 0.239782 3.97747e-20)
(1.33467 0.225848 -3.8908e-20)
(1.32993 0.212144 2.89111e-20)
(1.32486 0.198605 -1.92029e-20)
(1.31952 0.185454 0)
(1.31362 0.172863 -2.81542e-20)
(1.30759 0.161454 1.8553e-20)
(1.3017 0.151565 0)
(1.29643 0.142658 -4.58276e-21)
(1.29261 0.135043 8.96632e-21)
(0.578146 0.612637 3.28168e-21)
(0.623368 0.675535 -1.3313e-21)
(0.68093 0.730835 -1.80253e-21)
(0.74819 0.77486 5.6505e-22)
(0.82064 0.806165 -5.90166e-22)
(0.895845 0.825659 -1.20311e-20)
(0.968102 0.833053 1.61131e-20)
(1.03755 0.829225 0)
(1.10139 0.815716 -2.33289e-20)
(1.15626 0.794211 2.14016e-20)
(1.20429 0.766057 2.74018e-20)
(1.24495 0.733288 -1.58411e-21)
(1.27692 0.698888 0)
(1.30225 0.663608 6.1868e-20)
(1.32261 0.627765 -3.24492e-20)
(1.33788 0.593538 0)
(1.34888 0.561787 0)
(1.35695 0.531702 0)
(1.36286 0.502958 -1.64389e-20)
(1.36689 0.476153 1.75974e-20)
(1.36937 0.451617 0)
(1.37073 0.42858 1.64037e-20)
(1.37127 0.406512 0)
(1.3711 0.385309 0)
(1.3703 0.365612 3.30931e-20)
(1.36896 0.347225 -6.54249e-20)
(1.36717 0.329451 6.5387e-20)
(1.36499 0.312237 1.57186e-20)
(1.36244 0.295533 -3.20954e-20)
(1.35959 0.27981 -2.35141e-20)
(1.35646 0.264948 0)
(1.35303 0.250456 1.51499e-20)
(1.34933 0.236314 0)
(1.34532 0.222515 2.969e-22)
(1.34106 0.209289 -2.23706e-20)
(1.33647 0.196686 1.50362e-20)
(1.33153 0.184658 0)
(1.32649 0.173291 0)
(1.32164 0.162351 -3.611e-21)
(1.31729 0.15144 -3.80601e-21)
(0.653746 0.549729 4.13517e-21)
(0.684726 0.595339 1.12689e-21)
(0.721266 0.639152 -8.91132e-22)
(0.764555 0.678393 9.67383e-24)
(0.813844 0.710157 1.27302e-21)
(0.868299 0.733703 0)
(0.924193 0.747808 -5.80796e-21)
(0.980564 0.753185 0)
(1.03572 0.750347 -1.31114e-20)
(1.08633 0.740208 -3.1823e-21)
(1.13319 0.723789 -1.75504e-20)
(1.17551 0.702235 1.66126e-20)
(1.21121 0.677583 -2.18592e-20)
(1.24135 0.650665 -4.50389e-20)
(1.26719 0.621816 -2.41287e-20)
(1.28809 0.592813 2.45923e-20)
(1.30443 0.564697 -2.34359e-20)
(1.3175 0.537165 0)
(1.32801 0.510165 -1.11641e-20)
(1.33613 0.484417 -5.15137e-20)
(1.34213 0.460412 5.16438e-20)
(1.34659 0.437605 -1.34044e-20)
(1.34989 0.415576 0)
(1.35218 0.394273 0)
(1.3535 0.374336 3.82155e-20)
(1.35404 0.355641 -5.14262e-20)
(1.35395 0.337548 5.09388e-20)
(1.35331 0.319993 -3.39603e-22)
(1.35214 0.302928 -1.0091e-19)
(1.35053 0.286805 6.32189e-20)
(1.34855 0.271545 -2.47376e-20)
(1.34618 0.256685 -1.24509e-20)
(1.34346 0.242197 4.90362e-20)
(1.34038 0.228066 -1.81927e-20)
(1.33701 0.214498 6.18577e-21)
(1.33339 0.201554 -5.87241e-21)
(1.32952 0.189079 -5.83357e-21)
(1.32548 0.177057 0)
(1.3214 0.165438 2.90722e-21)
(1.31747 0.154193 -3.02681e-21)
(0.697432 0.510384 -1.94724e-21)
(0.719544 0.546079 -3.28144e-21)
(0.745416 0.58169 5.12418e-22)
(0.77622 0.615572 9.36718e-22)
(0.812263 0.645421 -8.23957e-22)
(0.853601 0.670234 0)
(0.897926 0.688019 2.38502e-21)
(0.944453 0.698869 2.29657e-21)
(0.991796 0.702801 0)
(1.03708 0.699861 8.16884e-21)
(1.08067 0.690921 9.85211e-21)
(1.12165 0.6768 0)
(1.15776 0.658795 -1.53841e-20)
(1.18956 0.637716 1.65931e-20)
(1.218 0.61408 0)
(1.24205 0.589345 -3.33965e-20)
(1.26174 0.564483 9.19326e-20)
(1.27819 0.539474 7.46805e-22)
(1.29203 0.514439 -1.80871e-20)
(1.30323 0.490126 0)
(1.31199 0.467073 0)
(1.31893 0.444903 0)
(1.32448 0.423321 1.96471e-20)
(1.32882 0.402342 0)
(1.33192 0.38259 0)
(1.33401 0.363955 0)
(1.33534 0.345872 3.07875e-20)
(1.33599 0.328299 -4.08707e-20)
(1.33602 0.31121 5.03308e-20)
(1.33547 0.295034 -3.07204e-20)
(1.33442 0.279681 0)
(1.33293 0.264722 0)
(1.33102 0.250143 -1.01127e-20)
(1.32873 0.235935 2.99217e-20)
(1.32609 0.222295 -1.76236e-22)
(1.32318 0.209258 -2.44201e-20)
(1.32001 0.196629 1.47625e-20)
(1.3166 0.184349 0)
(1.31298 0.172409 0)
(1.3092 0.160841 -4.8688e-21)
(0.734865 0.479385 0)
(0.752024 0.507876 2.28259e-21)
(0.771399 0.536841 3.15445e-21)
(0.794185 0.565373 -1.73838e-21)
(0.821116 0.591871 -5.72024e-22)
(0.852732 0.615584 8.06655e-22)
(0.887814 0.634454 1.25245e-21)
(0.925826 0.64826 5.16675e-21)
(0.965854 0.656559 1.16677e-21)
(1.0055 0.658827 -1.20127e-20)
(1.04485 0.6557 -3.70407e-22)
(1.08302 0.64762 -2.61152e-20)
(1.11781 0.635311 3.91978e-20)
(1.14943 0.619518 -2.09534e-20)
(1.17854 0.600776 2.45757e-20)
(1.20398 0.580219 -2.34217e-20)
(1.2255 0.558744 0)
(1.24404 0.536515 0)
(1.26009 0.513749 0)
(1.27348 0.491177 0)
(1.2843 0.469378 -1.6338e-20)
(1.29317 0.448133 -1.55082e-20)
(1.30052 0.427249 4.75468e-20)
(1.30652 0.406788 -3.23036e-20)
(1.3111 0.387362 0)
(1.3145 0.368914 1.58891e-20)
(1.31703 0.350951 -2.43746e-20)
(1.31877 0.333447 3.30266e-20)
(1.3198 0.316388 -5.7335e-20)
(1.32013 0.300185 1.6525e-20)
(1.31987 0.284765 -3.26842e-20)
(1.31911 0.269731 3.28333e-20)
(1.31788 0.25507 -4.04369e-22)
(1.31622 0.240775 8.33472e-21)
(1.31417 0.227025 0)
(1.3118 0.213856 0)
(1.30914 0.201068 -7.99719e-21)
(1.30618 0.1886 8.03429e-21)
(1.30295 0.176473 0)
(1.29948 0.164754 -3.85228e-21)
(0.763815 0.454764 1.00117e-21)
(0.777954 0.47819 -1.2804e-21)
(0.793519 0.50218 -4.55138e-22)
(0.811442 0.526212 6.78361e-22)
(0.832479 0.549205 7.15064e-22)
(0.857315 0.570733 -7.42484e-22)
(0.885398 0.589019 -1.47557e-21)
(0.91649 0.603781 -7.90879e-22)
(0.950098 0.614403 0)
(0.984346 0.620019 0)
(1.01924 0.62104 4.45737e-21)
(1.054 0.617608 0)
(1.08662 0.609956 0)
(1.11707 0.598699 -1.65331e-20)
(1.1458 0.584346 8.64842e-21)
(1.17158 0.567712 -1.8526e-20)
(1.19398 0.549573 1.03544e-20)
(1.21377 0.53021 0)
(1.23127 0.509894 1.09052e-20)
(1.24624 0.489306 1.26929e-20)
(1.25864 0.469031 -2.53808e-20)
(1.26904 0.448981 3.8399e-20)
(1.27787 0.429053 2.75573e-22)
(1.28526 0.409352 -2.5924e-20)
(1.29111 0.390475 1.36971e-20)
(1.29566 0.37241 -2.65615e-20)
(1.29924 0.354742 -2.67895e-20)
(1.30195 0.337462 -1.31088e-20)
(1.30386 0.320575 1.39065e-20)
(1.30499 0.304475 -3.32936e-20)
(1.30544 0.289103 5.40981e-20)
(1.30533 0.274097 -1.41273e-22)
(1.30471 0.259448 -5.4193e-20)
(1.3036 0.245151 6.95636e-21)
(1.30206 0.231377 0)
(1.30015 0.21816 1.99486e-20)
(1.29791 0.205307 -6.91138e-21)
(1.29533 0.192758 0)
(1.29243 0.180544 3.30399e-21)
(1.28921 0.16874 3.60423e-21)
(0.787611 0.434334 -1.02415e-21)
(0.799677 0.454004 3.87745e-22)
(0.81271 0.474206 2.24504e-22)
(0.827439 0.49461 7.25584e-24)
(0.844526 0.514463 6.8267e-23)
(0.864626 0.533561 2.32148e-22)
(0.887536 0.550467 -5.19605e-22)
(0.913204 0.564961 1.53315e-21)
(0.941442 0.576435 -1.59985e-21)
(0.970852 0.5839 0)
(1.00145 0.587613 2.42692e-21)
(1.03261 0.587509 -9.20216e-21)
(1.06259 0.58346 4.79253e-21)
(1.09122 0.575931 -1.77367e-20)
(1.11882 0.565357 2.10766e-20)
(1.14416 0.552261 -2.13275e-20)
(1.16671 0.537275 2.38119e-20)
(1.18704 0.520737 0)
(1.20538 0.502932 -9.47755e-21)
(1.22138 0.484465 9.90888e-21)
(1.23493 0.465898 -1.02618e-20)
(1.24652 0.447246 2.03576e-20)
(1.25653 0.428483 -4.14683e-20)
(1.26507 0.409745 2.10048e-20)
(1.27201 0.391602 1.11938e-20)
(1.27756 0.374089 1.12869e-20)
(1.28208 0.356867 -2.20941e-20)
(1.28566 0.339948 4.45716e-20)
(1.28838 0.323352 0)
(1.29024 0.307458 3.411e-20)
(1.29134 0.292226 -3.35225e-20)
(1.29184 0.277328 2.25474e-20)
(1.29177 0.262762 -1.68758e-20)
(1.29118 0.248525 5.80694e-21)
(1.2901 0.234782 5.51799e-21)
(1.28861 0.221569 -2.81116e-22)
(1.28675 0.208705 -5.78366e-21)
(1.2845 0.196135 0)
(1.28191 0.183896 -2.78777e-21)
(1.27894 0.172064 2.92811e-21)
(0.807362 0.416948 0)
(0.817948 0.433761 0)
(0.829226 0.451033 -2.69245e-21)
(0.841767 0.468547 1.15297e-21)
(0.856127 0.485745 -2.19933e-22)
(0.87288 0.502558 8.32786e-23)
(0.891986 0.517843 1.07217e-21)
(0.913495 0.53146 0)
(0.937403 0.542886 0)
(0.962689 0.55115 -4.30135e-21)
(0.989402 0.556423 -6.61388e-21)
(1.01709 0.558526 -8.74181e-23)
(1.04429 0.557098 1.22301e-20)
(1.07077 0.552466 -2.39313e-21)
(1.09676 0.544982 -8.09033e-21)
(1.12113 0.534925 0)
(1.14326 0.522776 0)
(1.16357 0.508881 0)
(1.18222 0.493512 0)
(1.19879 0.477181 -1.53252e-20)
(1.21308 0.460407 1.55109e-20)
(1.22551 0.443278 2.43895e-20)
(1.23642 0.425825 -3.3798e-20)
(1.24589 0.408204 8.82148e-21)
(1.25373 0.390951 0)
(1.26013 0.374143 -1.81029e-20)
(1.26547 0.357511 1.82462e-20)
(1.26983 0.341084 -9.58923e-21)
(1.27328 0.3249 0)
(1.2758 0.309322 -9.70099e-21)
(1.27751 0.29433 9.76619e-21)
(1.27857 0.279631 3.80289e-20)
(1.27902 0.265229 -3.81805e-20)
(1.27891 0.251128 1.91503e-20)
(1.27827 0.237487 -4.91544e-21)
(1.27717 0.224345 -2.37914e-20)
(1.27566 0.211534 9.60277e-21)
(1.27374 0.199004 4.76065e-21)
(1.27144 0.186797 -7.1565e-21)
(1.26872 0.174984 2.48527e-21)
(0.824057 0.401853 0)
(0.833522 0.416428 0)
(0.843512 0.43139 1.58177e-21)
(0.854478 0.446583 -1.26478e-21)
(0.866883 0.461578 8.75398e-24)
(0.881213 0.476377 6.13666e-23)
(0.897496 0.490065 -6.19664e-22)
(0.915828 0.502571 -7.35757e-22)
(0.936303 0.513469 2.49646e-21)
(0.958176 0.521876 -3.17689e-21)
(0.98153 0.527915 -1.49265e-22)
(1.00606 0.531364 6.40591e-25)
(1.03056 0.531738 4.49278e-21)
(1.05479 0.529254 7.29482e-21)
(1.07894 0.524187 9.24934e-21)
(1.10199 0.51663 -8.11984e-23)
(1.1233 0.50692 -9.21752e-21)
(1.14318 0.495385 0)
(1.16171 0.482266 -1.0861e-20)
(1.17844 0.46798 1.16146e-20)
(1.19312 0.452985 -1.30349e-20)
(1.20608 0.437417 6.88648e-21)
(1.21762 0.421344 3.48431e-22)
(1.22776 0.404933 7.75142e-21)
(1.23631 0.388677 -1.46322e-20)
(1.24342 0.372686 0)
(1.24945 0.356755 2.28008e-20)
(1.25447 0.340929 -3.86843e-20)
(1.25856 0.32526 3.14532e-20)
(1.26168 0.310094 -2.41305e-20)
(1.26395 0.29543 -1.60124e-20)
(1.26552 0.281012 1.61292e-20)
(1.26646 0.266851 1.61991e-20)
(1.26679 0.252956 -1.62865e-20)
(1.26656 0.239483 8.1381e-21)
(1.26584 0.226472 2.01738e-22)
(1.26466 0.213772 0)
(1.26305 0.201339 0)
(1.26103 0.189214 3.98299e-21)
(1.25856 0.177466 0)
(0.838349 0.38854 8.90008e-22)
(0.846936 0.401326 1.78119e-22)
(0.855939 0.414431 -1.81753e-22)
(0.865723 0.42774 4.37675e-24)
(0.876673 0.440909 0)
(0.889196 0.453977 2.14155e-22)
(0.903347 0.466201 2.60522e-22)
(0.919237 0.477559 -2.65e-22)
(0.937002 0.487712 1.44909e-21)
(0.95609 0.495882 -1.77337e-21)
(0.97661 0.502174 3.07421e-21)
(0.998363 0.50636 0)
(1.02037 0.507907 -4.19975e-21)
(1.04243 0.506951 1.44624e-21)
(1.06468 0.503706 1.30655e-20)
(1.08623 0.498131 -1.4111e-20)
(1.10647 0.490447 2.37626e-20)
(1.12562 0.480945 -8.2217e-21)
(1.14371 0.469828 9.76299e-21)
(1.16029 0.457421 -1.04448e-20)
(1.17504 0.444115 0)
(1.18826 0.430074 1.15517e-20)
(1.20017 0.415385 1.10875e-20)
(1.21077 0.400217 0)
(1.21983 0.385016 0)
(1.22749 0.369914 1.22003e-20)
(1.23408 0.354762 6.29072e-21)
(1.23966 0.339617 -6.28221e-21)
(1.24429 0.324544 1.29362e-20)
(1.24793 0.309868 2.01426e-20)
(1.25068 0.295609 -1.36203e-20)
(1.25273 0.281545 0)
(1.2541 0.267692 -1.38607e-20)
(1.25485 0.254068 1.39408e-20)
(1.255 0.240823 6.98473e-21)
(1.25462 0.228001 -3.29146e-23)
(1.25376 0.215466 -7.05169e-21)
(1.25245 0.203179 0)
(1.2507 0.191184 -1.0474e-20)
(1.24847 0.179544 0)
(0.850723 0.376653 -1.09941e-21)
(0.858598 0.387979 1.15232e-21)
(0.866818 0.399566 8.88941e-22)
(0.875681 0.411326 -7.90822e-22)
(0.885511 0.422975 -5.16868e-22)
(0.896648 0.434567 -1.96988e-22)
(0.909154 0.445492 1.47825e-22)
(0.92314 0.455757 -5.37972e-22)
(0.938754 0.465096 -1.82812e-22)
(0.955578 0.472832 1.51523e-21)
(0.973734 0.479063 -4.54427e-21)
(0.993099 0.483577 -5.89551e-22)
(1.01289 0.485838 1.08665e-20)
(1.03291 0.485929 -7.8699e-21)
(1.05332 0.484017 -5.28078e-21)
(1.07333 0.479973 6.49034e-21)
(1.09237 0.473927 -1.27425e-20)
(1.11061 0.466128 -6.62149e-21)
(1.12804 0.456738 1.56177e-20)
(1.14422 0.446004 -1.58607e-20)
(1.15882 0.434252 0)
(1.17205 0.42165 0)
(1.18411 0.408297 -7.92459e-22)
(1.19496 0.394355 0)
(1.20437 0.38022 0)
(1.21242 0.366042 -1.1082e-20)
(1.21943 0.351713 -1.05938e-20)
(1.22545 0.337301 -1.08469e-20)
(1.23052 0.322879 1.06895e-20)
(1.2346 0.308754 -6.27762e-21)
(1.23778 0.294959 -3.52202e-22)
(1.24023 0.281307 1.18023e-20)
(1.24199 0.26782 0)
(1.24311 0.254522 1.78301e-20)
(1.2436 0.241556 -1.20897e-20)
(1.24354 0.228973 -1.19576e-20)
(1.24299 0.216651 6.09635e-21)
(1.24195 0.204557 -3.03821e-21)
(1.24045 0.192734 9.32106e-21)
(1.23845 0.181242 0)
(0.861538 0.365932 6.98692e-22)
(0.868822 0.376047 -4.64838e-22)
(0.876402 0.386374 -2.12436e-22)
(0.884525 0.396844 6.68346e-22)
(0.893465 0.407217 5.52975e-22)
(0.903509 0.417553 -2.02592e-23)
(0.914718 0.427341 -1.15769e-22)
(0.927193 0.436606 9.154e-22)
(0.941081 0.445137 -1.72214e-21)
(0.956058 0.452352 -1.39325e-21)
(0.972248 0.458343 1.89165e-21)
(0.98958 0.46292 -2.52902e-21)
(1.00742 0.465576 5.29947e-21)
(1.02561 0.466356 3.63239e-21)
(1.04429 0.465393 8.01847e-21)
(1.06279 0.462508 5.07894e-22)
(1.0806 0.457759 -5.47497e-21)
(1.09783 0.451356 2.34096e-20)
(1.11447 0.443427 -3.10067e-20)
(1.13008 0.434149 2.71207e-20)
(1.14434 0.423786 -7.18235e-21)
(1.15741 0.412504 0)
(1.16943 0.400404 -6.5962e-22)
(1.18036 0.387635 0)
(1.18995 0.374546 0)
(1.19825 0.361291 0)
(1.20555 0.347801 6.46936e-22)
(1.2119 0.334148 2.92034e-20)
(1.21732 0.32041 -2.94842e-20)
(1.22175 0.306874 -2.96221e-22)
(1.22528 0.293588 -2.04384e-20)
(1.22807 0.280392 1.02183e-20)
(1.23017 0.267315 -1.00148e-20)
(1.23162 0.254386 -1.57399e-20)
(1.23242 0.241744 -5.09924e-21)
(1.23265 0.229443 1.05443e-20)
(1.23236 0.217374 0)
(1.23158 0.205511 -5.17026e-21)
(1.23033 0.193898 -6.49852e-21)
(1.22854 0.182589 1.36421e-21)
(0.871067 0.356183 6.09091e-22)
(0.877849 0.365279 0)
(0.884893 0.374546 -1.59294e-21)
(0.892405 0.38393 5.85044e-22)
(0.90062 0.393222 4.63163e-22)
(0.909782 0.402483 -7.35767e-23)
(0.919944 0.41128 0)
(0.931199 0.419648 -3.89052e-22)
(0.943684 0.427417 7.39778e-22)
(0.957141 0.434085 -1.2285e-21)
(0.971692 0.439742 -1.73932e-21)
(0.987299 0.444222 -4.03518e-22)
(1.00344 0.447055 -3.56155e-22)
(1.02001 0.448265 0)
(1.03711 0.447961 -1.04792e-20)
(1.05418 0.445934 1.11833e-20)
(1.07077 0.442198 0)
(1.08697 0.436923 -9.57942e-21)
(1.10273 0.430209 5.50086e-21)
(1.11768 0.422176 -1.17351e-20)
(1.13147 0.413034 5.48796e-21)
(1.14423 0.40294 0)
(1.15608 0.391989 6.83837e-21)
(1.16695 0.380317 -7.18244e-21)
(1.17658 0.368226 0)
(1.18501 0.355872 -1.57166e-20)
(1.19249 0.343212 1.6417e-20)
(1.19906 0.33032 8.62278e-21)
(1.20473 0.31728 -1.67055e-20)
(1.20943 0.304355 0)
(1.21324 0.291605 2.78926e-22)
(1.21632 0.278896 -1.74266e-20)
(1.2187 0.266261 9.23996e-21)
(1.22042 0.253735 0)
(1.22149 0.24145 4.69835e-21)
(1.22197 0.229465 -4.72603e-21)
(1.22193 0.217683 4.49683e-21)
(1.22138 0.206085 4.76723e-21)
(1.22035 0.194714 9.30018e-21)
(1.21876 0.18362 4.61603e-21)
(0.879523 0.347255 0)
(0.88587 0.355485 0)
(0.892456 0.363851 5.16034e-23)
(0.899454 0.372309 -1.05055e-21)
(0.907064 0.380678 -2.69852e-23)
(0.915496 0.389014 -1.56066e-22)
(0.924796 0.396947 0)
(0.935049 0.404516 0)
(0.946376 0.411584 7.11177e-22)
(0.958571 0.417715 -7.28304e-22)
(0.971746 0.422997 3.48161e-22)
(0.985886 0.427285 -1.3866e-21)
(1.00057 0.430152 0)
(1.01569 0.431609 0)
(1.03137 0.431747 5.23378e-21)
(1.04712 0.430349 -6.07817e-21)
(1.06255 0.427392 6.59264e-22)
(1.07772 0.42302 4.91456e-21)
(1.09259 0.417304 -8.47286e-21)
(1.10681 0.410323 0)
(1.12005 0.402241 4.99445e-21)
(1.13241 0.393199 5.32679e-21)
(1.14397 0.383285 0)
(1.15467 0.372621 6.12371e-21)
(1.16423 0.361466 -1.27071e-20)
(1.17268 0.349972 0)
(1.18024 0.338115 7.17151e-21)
(1.18694 0.325973 -6.99484e-21)
(1.19278 0.313626 2.15343e-20)
(1.19767 0.301319 0)
(1.20169 0.289119 1.52074e-20)
(1.20499 0.276915 7.95771e-21)
(1.2076 0.264744 7.6049e-21)
(1.20955 0.252643 -7.90707e-21)
(1.21086 0.240742 7.97978e-21)
(1.21156 0.229099 0)
(1.21173 0.217631 -4.16427e-21)
(1.21138 0.206324 0)
(1.21055 0.19522 -4.19358e-21)
(1.20915 0.184367 -4.25562e-21)
(0.887071 0.339032 3.95956e-22)
(0.893039 0.346517 -5.64463e-22)
(0.899226 0.354107 1.36189e-21)
(0.905781 0.361769 4.77008e-22)
(0.912876 0.369342 -3.19355e-22)
(0.920693 0.376879 1.70268e-22)
(0.929272 0.384058 -2.40945e-23)
(0.938686 0.390919 -4.70827e-22)
(0.949045 0.397349 -3.18365e-22)
(0.960178 0.402971 -6.14096e-22)
(0.972189 0.407866 1.97364e-22)
(0.985077 0.411912 2.91227e-21)
(0.998486 0.414722 -2.98574e-21)
(1.01234 0.416301 -4.75126e-22)
(1.02675 0.416724 -5.56861e-22)
(1.0413 0.415777 1.13364e-20)
(1.05564 0.413416 -5.77975e-21)
(1.06982 0.409758 6.49026e-21)
(1.08381 0.404858 -7.79769e-21)
(1.09728 0.398758 1.9397e-23)
(1.10992 0.391585 -4.63571e-21)
(1.12182 0.383465 4.77571e-21)
(1.13301 0.374477 -1.1394e-22)
(1.14345 0.364727 0)
(1.15286 0.354437 0)
(1.16124 0.343751 -1.12012e-20)
(1.1688 0.332662 -5.80865e-21)
(1.17554 0.321241 -6.00095e-21)
(1.18146 0.309572 -4.08999e-22)
(1.18649 0.297879 -1.94394e-20)
(1.19066 0.286231 6.33947e-21)
(1.19413 0.27454 0)
(1.19692 0.262844 -1.39333e-20)
(1.19905 0.251184 1.36584e-20)
(1.20054 0.239683 0)
(1.20143 0.228401 7.06674e-21)
(1.20178 0.217268 -3.57128e-21)
(1.20162 0.206273 -7.1601e-21)
(1.20096 0.195458 5.39367e-21)
(1.19973 0.184868 -5.358e-21)
(0.893846 0.331421 0)
(0.899476 0.338258 0)
(0.905312 0.345176 -1.04512e-21)
(0.91148 0.352148 0)
(0.91813 0.35903 0)
(0.92542 0.36587 2.08508e-23)
(0.933383 0.372387 -2.1367e-23)
(0.942085 0.37862 4.43438e-22)
(0.951623 0.384475 8.64134e-22)
(0.961853 0.389623 1.94849e-21)
(0.972871 0.39414 2.71035e-21)
(0.984682 0.39792 2.48764e-21)
(0.996988 0.400617 -2.18179e-21)
(1.00973 0.402231 2.24178e-22)
(1.023 0.402828 -3.67793e-21)
(1.03646 0.402199 9.26689e-21)
(1.04979 0.40029 -4.93539e-21)
(1.06304 0.397197 5.59814e-21)
(1.07617 0.392958 0)
(1.08889 0.387592 1.46576e-20)
(1.10092 0.381194 -1.4759e-20)
(1.11231 0.373877 -7.88781e-21)
(1.12309 0.365708 -1.74656e-20)
(1.13321 0.35678 -4.93573e-22)
(1.1424 0.34728 -3.41613e-22)
(1.15064 0.337345 2.03459e-20)
(1.15813 0.326977 5.41358e-21)
(1.16485 0.316246 1.60698e-20)
(1.1708 0.30523 -1.65068e-20)
(1.17588 0.294135 5.89796e-21)
(1.18015 0.283035 1.16915e-20)
(1.18373 0.271856 -1.17929e-20)
(1.18665 0.260639 0)
(1.18893 0.249426 -6.28894e-21)
(1.19057 0.238336 0)
(1.19161 0.227428 1.64244e-22)
(1.19212 0.216644 -6.28918e-21)
(1.19211 0.205976 0)
(1.19161 0.195466 6.18766e-21)
(1.19052 0.185156 1.74335e-22)
(0.899957 0.324344 7.06295e-22)
(0.905284 0.330616 -1.27223e-22)
(0.910805 0.336946 1.65313e-22)
(0.91663 0.343314 -3.15753e-24)
(0.922889 0.349591 8.96264e-22)
(0.92972 0.35582 -1.78692e-23)
(0.937151 0.361754 1.26744e-22)
(0.94524 0.367431 2.47825e-22)
(0.954073 0.372769 4.4703e-22)
(0.963527 0.377481 -1.59675e-21)
(0.973688 0.381636 -1.55648e-21)
(0.984566 0.385144 0)
(0.995908 0.387695 4.84879e-21)
(1.00766 0.389287 9.53799e-23)
(1.01993 0.389978 -6.44045e-21)
(1.0324 0.389569 -4.13152e-21)
(1.0448 0.388001 4.32189e-21)
(1.05718 0.385352 4.8465e-21)
(1.0695 0.381649 -5.31822e-21)
(1.08149 0.376893 0)
(1.09291 0.371155 6.88941e-21)
(1.10377 0.364532 7.8151e-21)
(1.11411 0.357084 9.28641e-22)
(1.12386 0.34889 -2.38348e-20)
(1.13278 0.340108 -8.16762e-21)
(1.14084 0.330865 0)
(1.14819 0.32117 9.26313e-21)
(1.15483 0.311088 -1.91501e-20)
(1.16075 0.300695 1.00724e-20)
(1.16585 0.290178 -3.64035e-22)
(1.17016 0.279612 9.81503e-21)
(1.17382 0.268937 2.05385e-20)
(1.17683 0.258196 -5.16812e-21)
(1.17921 0.247432 0)
(1.18096 0.236757 -5.31498e-21)
(1.18213 0.226231 5.68429e-21)
(1.18276 0.215804 0)
(1.18288 0.205474 5.45858e-21)
(1.18251 0.195281 -7.2013e-21)
(1.18155 0.185265 4.31293e-21)
(0.90549 0.317742 0)
(0.910543 0.323514 0)
(0.915781 0.329326 -3.55654e-22)
(0.921298 0.335163 -2.77906e-24)
(0.92721 0.340908 -1.24361e-21)
(0.933636 0.346599 0)
(0.9406 0.352017 6.41379e-23)
(0.948155 0.357197 -6.56543e-22)
(0.956375 0.362071 0)
(0.965154 0.366383 0)
(0.974569 0.370199 0)
(0.984634 0.37344 -1.87069e-21)
(0.99513 0.375829 1.74701e-21)
(1.00602 0.377362 -2.88096e-22)
(1.01738 0.37809 -1.77744e-22)
(1.02896 0.377829 -8.6071e-23)
(1.04052 0.376516 -3.04184e-22)
(1.05209 0.374216 -4.54444e-21)
(1.06364 0.370947 0)
(1.07493 0.366698 0)
(1.08574 0.36152 0)
(1.09607 0.355498 1.91471e-20)
(1.10596 0.348682 -1.23925e-20)
(1.11532 0.34114 1.43949e-20)
(1.12394 0.333007 4.22274e-22)
(1.13177 0.324396 -7.83695e-21)
(1.13895 0.315324 7.91059e-21)
(1.14547 0.305851 -8.42862e-21)
(1.15131 0.296047 1.68158e-20)
(1.15637 0.286083 -5.47707e-22)
(1.16069 0.276034 -9.33492e-21)
(1.16437 0.265851 -5.52725e-22)
(1.16743 0.255578 -4.29676e-21)
(1.16988 0.245258 9.57101e-21)
(1.17172 0.234997 1.74773e-22)
(1.17298 0.224856 -4.89192e-21)
(1.17371 0.214792 4.93863e-21)
(1.17393 0.204806 -1.49618e-20)
(1.17367 0.194938 3.62587e-21)
(1.17282 0.185225 1.24965e-21)
(0.910521 0.311561 -1.87726e-22)
(0.915324 0.316891 3.39832e-22)
(0.920303 0.322244 1.33084e-21)
(0.925542 0.32761 5.21941e-22)
(0.93114 0.332883 4.37607e-22)
(0.937205 0.338097 -6.48812e-23)
(0.943757 0.343057 7.19547e-25)
(0.95084 0.347794 -1.94706e-22)
(0.958521 0.35225 9.10409e-22)
(0.966707 0.356198 -1.52647e-21)
(0.975468 0.359699 1.10885e-21)
(0.984817 0.362683 2.12929e-22)
(0.994565 0.364902 -3.59239e-21)
(1.00468 0.366353 -4.42058e-21)
(1.01524 0.36708 2.68943e-21)
(1.02601 0.366914 6.01876e-21)
(1.0368 0.365791 3.6268e-21)
(1.04762 0.363765 -1.09435e-20)
(1.05845 0.360848 0)
(1.06909 0.357021 0)
(1.07931 0.352318 4.88039e-21)
(1.08912 0.346815 1.11575e-20)
(1.09854 0.340553 -1.15445e-20)
(1.1075 0.33359 -5.73287e-22)
(1.11579 0.32604 -5.1863e-22)
(1.12337 0.318007 -4.69925e-22)
(1.13034 0.309509 6.75807e-21)
(1.13671 0.300602 7.2544e-21)
(1.14243 0.291352 -1.55068e-20)
(1.14743 0.281914 7.27415e-21)
(1.15171 0.27236 8.06584e-21)
(1.15539 0.262654 -3.91361e-22)
(1.15847 0.252837 3.03856e-22)
(1.16096 0.242954 8.50579e-21)
(1.16285 0.233103 -4.27799e-21)
(1.16417 0.223345 -8.70991e-21)
(1.16498 0.213645 4.39821e-21)
(1.16529 0.204006 4.56776e-21)
(1.16512 0.194468 -2.49977e-22)
(1.16437 0.185065 0)
(0.91511 0.30576 1.1898e-21)
(0.919683 0.310694 -2.14236e-22)
(0.924425 0.315637 -6.57908e-22)
(0.929409 0.320584 -4.49139e-22)
(0.934724 0.325437 -4.96902e-23)
(0.940463 0.330226 1.91047e-23)
(0.946645 0.334777 -1.38387e-22)
(0.953308 0.339118 2.72561e-22)
(0.960511 0.343197 0)
(0.968172 0.346814 7.78412e-22)
(0.976353 0.350023 -1.05331e-21)
(0.985068 0.352764 2.80933e-21)
(0.994152 0.354814 -4.82711e-21)
(1.00358 0.356169 1.93037e-21)
(1.01341 0.35687 4.87052e-21)
(1.02346 0.35676 -7.6982e-21)
(1.03354 0.355776 0)
(1.04368 0.353966 3.48173e-21)
(1.05384 0.351336 0)
(1.06385 0.347859 3.95085e-21)
(1.0735 0.343562 -1.37814e-20)
(1.08281 0.338507 9.26115e-21)
(1.09177 0.33273 -1.02491e-20)
(1.10033 0.326281 0)
(1.10828 0.319256 -5.56828e-21)
(1.11558 0.311748 0)
(1.12233 0.303778 -1.27289e-20)
(1.12851 0.295395 1.2848e-20)
(1.13409 0.286663 0)
(1.13899 0.277722 -1.41935e-20)
(1.14322 0.268643 -1.10756e-22)
(1.14686 0.259394 7.04574e-21)
(1.14993 0.25002 -7.39262e-21)
(1.15243 0.240562 0)
(1.15435 0.231114 0)
(1.15571 0.221735 0)
(1.15658 0.212398 1.15653e-20)
(1.15695 0.203106 -3.96195e-21)
(1.15685 0.193899 -2.24382e-22)
(1.15618 0.184809 0)
(0.919309 0.3003 -2.53247e-22)
(0.923668 0.304879 -1.9162e-22)
(0.928192 0.309456 5.46283e-22)
(0.932941 0.314028 -4.10735e-22)
(0.937997 0.318505 -4.9098e-23)
(0.943441 0.322913 1.61632e-22)
(0.949288 0.327097 -1.72065e-23)
(0.955573 0.331082 -2.6802e-22)
(0.962348 0.334822 7.88449e-22)
(0.96954 0.338138 6.55263e-22)
(0.977204 0.341078 0)
(0.985353 0.343591 1.29194e-21)
(0.993842 0.345476 1.79744e-22)
(1.00265 0.346729 -1.92865e-21)
(1.01183 0.347386 3.75713e-21)
(1.02123 0.347304 0)
(1.03066 0.346423 0)
(1.04016 0.344783 1.19466e-20)
(1.04971 0.342386 5.67251e-22)
(1.05913 0.339203 -3.68566e-21)
(1.06825 0.335251 7.60954e-21)
(1.07706 0.330585 -8.19058e-21)
(1.08558 0.325234 -4.0862e-21)
(1.09373 0.319241 -9.82827e-21)
(1.10134 0.312686 1.52272e-20)
(1.10835 0.305656 1.0851e-20)
(1.11486 0.298169 -2.76659e-20)
(1.12083 0.290273 1.70396e-20)
(1.12626 0.282025 1.21093e-20)
(1.13103 0.273552 -6.23334e-21)
(1.13517 0.264922 0)
(1.13876 0.256112 6.31552e-21)
(1.14179 0.247164 0)
(1.14428 0.238118 0)
(1.14621 0.229064 6.87147e-21)
(1.1476 0.220059 -1.36935e-20)
(1.1485 0.211079 -1.40649e-20)
(1.14891 0.202133 -6.89488e-21)
(1.14887 0.193256 -6.25166e-21)
(1.14826 0.18448 -8.76889e-22)
(0.923161 0.295152 0)
(0.927323 0.299411 0)
(0.931642 0.303657 -1.01288e-21)
(0.936175 0.307891 2.74858e-23)
(0.940991 0.31203 2.35552e-22)
(0.946165 0.316097 -1.07391e-22)
(0.951708 0.31995 -5.75345e-23)
(0.95765 0.323614 0)
(0.964039 0.327048 -4.19512e-22)
(0.970808 0.330089 -1.80731e-21)
(0.978008 0.332783 1.58377e-21)
(0.985649 0.335083 2.02456e-21)
(0.993602 0.33681 0)
(1.00185 0.337958 -2.97889e-21)
(1.01045 0.338561 -7.31818e-21)
(1.01924 0.338488 7.92534e-21)
(1.02809 0.337681 3.92931e-22)
(1.037 0.336174 -1.59743e-20)
(1.04598 0.333969 6.00138e-21)
(1.05485 0.331033 -1.94414e-20)
(1.06346 0.327377 -4.90282e-22)
(1.0718 0.323049 4.9062e-22)
(1.07988 0.318073 5.21046e-22)
(1.08764 0.312485 8.74159e-21)
(1.09491 0.306354 3.8629e-22)
(1.10163 0.299757 -8.86148e-21)
(1.10788 0.292714 -5.06888e-21)
(1.11364 0.285267 -5.62967e-21)
(1.11889 0.277469 1.05425e-20)
(1.12352 0.269436 -5.70346e-21)
(1.12756 0.261233 0)
(1.13107 0.252841 -1.45225e-22)
(1.13405 0.244302 -1.76275e-20)
(1.1365 0.235655 -4.8928e-23)
(1.13842 0.226983 6.12029e-21)
(1.13981 0.218343 6.41081e-21)
(1.14073 0.209715 6.48092e-21)
(1.14118 0.201109 6.54074e-21)
(1.14118 0.19256 9.5127e-21)
(1.14063 0.184097 0)
(0.926704 0.290287 3.28862e-23)
(0.930681 0.294256 -5.46957e-22)
(0.93481 0.298204 4.69701e-22)
(0.939141 0.302132 -3.72758e-22)
(0.943735 0.305966 -1.56493e-22)
(0.94866 0.309724 0)
(0.953924 0.31328 5.51484e-23)
(0.959554 0.316654 0)
(0.965592 0.31981 -7.24903e-22)
(0.971978 0.322601 1.13034e-21)
(0.978757 0.325069 -1.514e-21)
(0.985938 0.327172 -1.93393e-21)
(0.993407 0.328748 -2.24661e-21)
(1.00115 0.329793 -1.20212e-22)
(1.00921 0.330336 6.31112e-21)
(1.01746 0.330257 9.42981e-23)
(1.02577 0.329503 3.68549e-22)
(1.03415 0.328103 0)
(1.04258 0.326055 1.07924e-20)
(1.05094 0.323328 -5.48621e-21)
(1.05907 0.319927 6.424e-21)
(1.06697 0.315893 -6.45504e-21)
(1.07464 0.311248 2.13373e-20)
(1.08201 0.306021 0)
(1.08894 0.300272 0)
(1.09536 0.294069 5.25003e-22)
(1.10136 0.287433 -9.15519e-21)
(1.1069 0.2804 0)
(1.11195 0.273022 -3.8339e-22)
(1.11643 0.265402 9.77949e-21)
(1.12035 0.257602 -3.63343e-22)
(1.12377 0.249608 1.03238e-20)
(1.12668 0.24146 5.48218e-21)
(1.12908 0.233196 -1.07009e-20)
(1.13097 0.224895 -3.11927e-23)
(1.13236 0.21661 5.57241e-21)
(1.13328 0.208327 0)
(1.13375 0.200056 2.70083e-21)
(1.13378 0.19183 -3.03921e-21)
(1.13327 0.183677 -5.43359e-21)
(0.92997 0.285682 6.5668e-23)
(0.933774 0.289388 9.2038e-22)
(0.937725 0.293065 -1.14419e-22)
(0.941866 0.296716 5.68169e-22)
(0.946254 0.300273 1.81512e-22)
(0.950948 0.303753 6.71089e-23)
(0.955954 0.307039 1.09333e-22)
(0.961298 0.31015 0)
(0.967015 0.313053 1.35723e-21)
(0.973051 0.315616 0)
(0.979446 0.317878 0)
(0.98621 0.319798 0)
(0.993239 0.321233 4.17273e-21)
(1.00052 0.322177 0)
(1.00809 0.322656 2.80023e-22)
(1.01585 0.322562 -9.87516e-21)
(1.02366 0.321845 7.21607e-21)
(1.03154 0.320529 4.07976e-21)
(1.03948 0.318612 0)
(1.04736 0.316063 -4.95905e-21)
(1.05504 0.312883 -5.74634e-21)
(1.06251 0.309108 -1.49068e-23)
(1.06978 0.304756 -6.98744e-21)
(1.07678 0.299852 6.27594e-21)
(1.08337 0.294447 7.06951e-21)
(1.08951 0.288604 4.63865e-22)
(1.09525 0.28234 -7.71651e-21)
(1.10056 0.275691 -3.49384e-22)